LAMMPS data file

19584 atoms
4 atom types
18768 bonds
1 bond types
17952 angles
1 angle types

0.0 125.112432 xlo xhi
0.0 125.112432 ylo yhi
0.0 125.112432 zlo zhi

Masses

1 1
2 1
3 1
4 1

Atoms

1 1 2 0.000000 110.279099752143580 61.078465214765963 46.777456106497546
2 1 2 0.000000 109.443839753579894 60.766805742148861 47.133558771367419
3 1 2 0.000000 110.047481586738812 61.312531880809608 46.624245980596392
4 1 2 0.000000 109.553591412428332 60.916126875284263 47.345727489239550
5 1 2 0.000000 109.166828686955171 60.305620140579919 46.713828667381797
6 1 2 0.000000 109.901037074276132 59.994851581995547 47.248581831919374
7 1 2 0.000000 109.286862965989556 59.903084840650379 47.980680889351682
8 1 2 0.000000 110.020507047625529 60.323807876180091 48.434947869062050
9 1 2 0.000000 109.896539504056847 59.473393969585459 48.007129875504042
10 1 2 0.000000 110.556397928440319 58.795187353444419 47.845195797581290
11 1 2 0.000000 110.555305878373076 57.840042142696475 47.941613813594465
12 1 2 0.000000 110.045254265067186 57.110247680363138 48.300567006241728
13 1 2 0.000000 110.017272363861238 56.193742299705178 48.584881797327085
14 1 2 0.000000 109.942299925235375 56.944953838998536 49.177891372864437
15 1 2 0.000000 109.876352295361528 56.596838130269973 48.285665861320169
16 1 2 0.000000 109.455743589424117 57.081816266298873 48.999447707589454
17 1 2 0.000000 109.578237651019492 56.573468985466867 48.194352528778538
18 1 2 0.000000 109.930842246463826 57.441890343596100 48.401992467173166
19 1 2 0.000000 109.275999086884553 56.741168734826822 48.444059834050940
20 1 2 0.000000 108.624011616058596 57.425906073797570 48.610334048844564
21 1 4 0.000000 108.144805052558013 56.845929127698390 48.014022208033538
22 1 2 0.000000 108.242239623274600 57.020256782579956 48.953019744331030
23 1 2 0.000000 107.490480041835198 56.732843008087002 49.476327353625763
24 1 2 0.000000 108.222803113507823 56.116230903105347 49.547688622434997
25 2 2 0.000000 45.532649908692292 56.739131594617689 78.664443323341175
26 2 2 0.000000 46.001462095777583 57.573306466722912 78.741692375041183
27 2 2 0.000000 45.427200111601898 58.121299930900619 79.281624164019306
28 2 2 0.000000 45.307208103142486 57.267336503943682 79.703463450153052
29 2 2 0.000000 44.605920468802239 57.624742924517143 80.253059942549370
30 2 2 0.000000 44.955687916588680 56.868894218251441 79.775613122782573
31 2 2 0.000000 45.373863823829211 56.300371132607324 79.124836347157284
32 2 2 0.000000 45.788970312514877 56.023238307991392 79.944887565418341
33 2 2 0.000000 45.152677131448257 55.333691293636129 79.741772074325553
34 2 2 0.000000 44.710472115775744 54.502716347992497 79.930280333631714
35 2 2 0.000000 45.439908340667401 54.074760257884336 79.475993663394576
36 2 2 0.000000 45.097060572654023 54.515225482277579 80.257047947083265
37 2 2 0.000000 44.944620609910395 54.847198759037269 79.369266554354084
38 2 2 0.000000 45.793992055221516 54.776240786996986 78.927527814719411
39 2 2 0.000000 45.744712489692219 55.584641638971313 79.442949571098040
40 2 2 0.000000 45.154645197929113 56.312656652195066 79.234587550297277
41 2 2 0.000000 45.826890308034827 55.686167087391539 78.956743462486770
42 2 2 0.000000 45.657310591281814 54.980029250149080 78.328880360783458
43 2 2 0.000000 45.049309704191714 54.541848687897314 77.728936433268245
44 2 2 0.000000 45.215620306318691 55.314425531648581 77.183898999581814
45 2 4 0.000000 44.728616364357805 54.817013199382743 77.844964905694368
46 2 2 0.000000 44.115062591015068 55.231193291187353 77.233731219801967
47 2 2 0.000000 43.276020723088834 54.907759912545885 76.897577098233569
48 2 2 0.000000 43.963999233469814 55.329230486741046 76.377338571842472
49 3 2 0.000000 77.974297917822440 7.308365483963766 23.588241081720874
50 3 2 0.000000 78.625950255924465 6.797335951484408 24.073831492643588
51 3 2 0.000000 79.214339042399530 7.014111613923427 23.346915439632980
52 3 2 0.000000 79.271998085761041 6.403545148065578 22.608346535949316
53 3 2 0.000000 79.997882863990881 7.029319166150264 22.664007716536524
54 3 2 0.000000 80.628427541177217 6.377224899995086 22.978310879294266
55 3 2 0.000000 80.911812145556794 5.704056249586704 23.601317407436621
56 3 2 0.000000 80.601256232480580 5.013853125942411 24.191888887416020
57 3 2 0.000000 80.205033493568862 5.574670827067045 23.521000634966647
58 3 2 0.000000 80.798329365084768 5.022778528543749 24.035796613654185
59 3 2 0.000000 80.379862791163291 5.656425345963878 23.448448814404234
60 3 2 0.000000 81.303329750010192 5.909305402566079 23.378731866027724
61 3 2 0.000000 81.547111493736580 6.256205740470580 24.240027760008104
62 3 2 0.000000 81.803960312614947 6.942332367441329 23.619657760731435
63 3 2 0.000000 82.131046233180484 7.694716958219739 24.118187828156660
64 3 2 0.000000 81.731408067128072 8.192419512316565 24.835252332842089
65 3 2 0.000000 80.921966859274036 8.685064626198722 24.989218961680404
66 3 2 0.000000 81.488090418646465 8.921642551389349 24.250886380226770
67 3 2 0.000000 82.363080360637127 8.856752283172138 23.861294472577416
68 3 2 0.000000 81.782671896172772 8.476580987772449 24.524767004437059
69 3 4 0.000000 81.516635008855630 7.615393164904527 24.855190835797050
70 3 2 0.000000 81.035027654419750 7.818766798717771 24.050024069702680
71 3 2 0.000000 80.709806766334594 7.254402080940989 24.755235980607367
72 3 2 0.000000 81.332732450398126 7.171123347794115 24.029544417517766
73 4 2 0.000000 113.378022291449383 29.623384395345528 113.766102707804308
74 4 2 0.000000 114.025705382339083 30.260604058715796 113.456170917905553
75 4 2 0.000000 114.903575139631172 30.177012321951761 113.835587721403627
76 4 2 0.000000 114.521716379873652 30.251795109097852 112.957982216439632
77 4 2 0.000000 114.972769177242583 30.588903598983201 112.180480293591287
78 4 2 0.000000 114.115358184881828 30.537919013293831 112.609254082670134
79 4 2 0.000000 114.796317906282468 31.186363988144862 112.415829750125312
80 4 2 0.000000 115.389280035115135 31.867645745504234 112.090482119337025
81 4 2 0.000000 115.876664819293268 32.587630470940653 111.683446411702079
82 4 2 0.000000 115.117562752976156 33.025003094327602 111.290929862720120
83 4 2 0.000000 115.682404603390324 33.589768770317427 110.758394966920363
84 4 2 0.000000 115.382465104896411 34.186434430048671 110.068738249603186
85 4 2 0.000000 116.314195677628604 34.346519250446285 110.235624408748919
86 4 2 0.000000 117.124117367493923 33.981007544609092 110.598981050606042
87 4 2 0.000000 116.532634078188778 34.512494407591895 110.061143498040721
88 4 2 0.000000 116.035821378366734 33.889393312139525 110.596421151358683
89 4 2 0.000000 115.408301013927542 34.327196192706431 111.176202860264212
90 4 2 0.000000 115.913500826277712 33.538918615076710 110.964090601760461
91 4 2 0.000000 116.101892253771084 32.721917747691514 110.496524293373255
92 4 2 0.000000 115.522521611316094 32.087358241445962 110.068430972128112
93 4 4 0.000000 115.528545093850639 32.111190945434302 109.108745752965731
94 4 2 0.000000 116.133572021232567 32.550969467552846 109.710524174501444
95 4 2 0.000000 116.231929358453186 33.265617592963160 110.343930750929573
96 4 2 0.000000 116.915402074649748 33.252056474441382 111.017934565666067
97 5 2 0.000000 68.076187466128545 103.883207871106137 103.657803060042113
98 5 2 0.000000 67.641549683428167 104.680642564110130 103.346695509116529
99 5 2 0.000000 68.272318262780516 103.968337399083779 103.218819197085693
100 5 2 0.000000 69.032846303180477 103.642207423918634 103.705477536235620
101 5 2 0.000000 68.534304490416915 104.434558752080051 103.492791303283767
102 5 2 0.000000 67.964458866976940 104.004350480492619 102.851077341690228
103 5 2 0.000000 68.800817617191228 103.709561217656059 103.218777398062628
104 5 2 0.000000 68.300464294828529 103.967069832384325 103.996553629469418
105 5 2 0.000000 67.364629737197177 103.878340177879693 104.191337430526957
106 5 2 0.000000 68.216028070869754 103.486270942727657 104.398708094476447
107 5 2 0.000000 67.466239633707758 104.032252947950141 104.646338765984254
108 5 2 0.000000 66.560831859231797 104.068543119694525 104.329290212363134
109 5 2 0.000000 65.748532061396475 103.569785066914790 104.443349158632415
110 5 2 0.000000 64.954403404404673 103.064600358686576 104.254277514230679
111 5 2 0.000000 64.351871262797360 103.499308714181296 103.646343583615533
112 5 2 0.000000 63.963674467244125 102.786332628723116 103.133929347389682
113 5 2 0.000000 64.262370756896757 101.904409856974453 103.367580264826131
114 5 2 0.000000 65.056356456587380 101.708980738580493 103.870565521439644
115 5 2 0.000000 65.987534921285345 101.923053764832204 103.777402190057700
116 5 2 0.000000 66.067797922957908 101.240681259463173 104.447868903980847
117 5 4 0.000000 66.585354342430932 101.713380387713684 105.103834518028918
118 5 2 0.000000 65.986600511006799 102.462779870360038 105.065178797051274
119 5 2 0.000000 66.510696990019454 102.930869416304986 105.719254524825658
120 5 2 0.000000 66.109088478337270 102.510866708342391 104.955115578920854
121 6 2 0.000000 81.081642583891266 102.301465025100512 57.667867279847755
122 6 2 0.000000 81.620055035789747 101.629784191148104 58.092787141635448
123 6 2 0.000000 81.959705117320468 102.507984359372685 57.905698161076756
124 6 2 0.000000 81.339517813240306 101.812715663326387 58.137148259706827
125 6 2 0.000000 80.946494573449286 102.515203347475790 57.614038532591593
126 6 2 0.000000 81.518653379336953 101.883201350044146 58.055408871522076
127 6 2 0.000000 80.728703515957392 101.389683030695011 57.822989247106626
128 6 2 0.000000 81.238428115252688 100.585679660317766 57.946922347185954
129 6 2 0.000000 81.034916247376074 101.456177916577815 58.296801905722312
130 6 2 0.000000 80.996037593403329 101.575223733025240 57.345005423352454
131 6 2 0.000000 81.586556874295383 100.977713200826685 57.809621547487779
132 6 2 0.000000 81.749857104770072 100.860242724701592 56.870934314184879
133 6 2 0.000000 82.529556605270656 101.419944174989283 56.891008562987835
134 6 2 0.000000 81.999191530721248 100.934301388286812 57.526983382789730
135 6 2 0.000000 81.587791305406867 101.767667434443368 57.286461267954799
136 6 2 0.000000 81.392028244522308 102.694613345433936 57.441535772922506
137 6 2 0.000000 80.733681433705371 103.306330904604650 57.779146650249324
138 6 2 0.000000 80.312651239991979 102.530731911363048 58.157008764868245
139 6 2 0.000000 81.000678555660230 102.337039853650992 57.516148561958424
140 6 2 0.000000 81.567454546134670 102.923933379087416 58.022034879645034
141 6 4 0.000000 81.950307322334766 102.328409268459211 58.670398038234701
142 6 2 0.000000 81.250616445762248 102.778795162690614 58.191665102749198
143 6 2 0.000000 80.421915348713526 102.336216842453908 58.389095906340486
144 6 2 0.000000 80.617763679959310 102.962519151674613 59.089801870788527
145 7 2 0.000000 104.252574233064934 52.492851123876910 0.665846541429548
146 7 2 0.000000 103.872498530443409 51.621171482544348 0.797440854236301
147 7 2 0.000000 104.822932974701388 51.605036729232808 0.663224473329957
148 7 2 0.000000 105.486926826431471 51.623614012027240 -0.029860694184562
149 7 2 0.000000 106.145122981010289 52.295587759480036 0.162048411466772
150 7 2 0.000000 105.826920744393433 52.268016168070318 1.067358934966400
151 7 2 0.000000 106.503740098221044 51.652406333466054 0.776601142598097
152 7 2 0.000000 106.032768510410122 50.986716494880881 0.270001890447739
153 7 2 0.000000 106.443889123614923 50.261931965123921 0.746727416115383
154 7 2 0.000000 107.269773786333545 49.834354675094310 0.508626208774740
155 7 2 0.000000 107.837508701865346 50.303499269968682 -0.107150061299275
156 7 2 0.000000 108.646835538128457 50.802987150782258 -0.237924405207803
157 7 2 0.000000 108.175921955050626 51.540692817129383 -0.632425035260710
158 7 2 0.000000 107.718924879569414 50.795070866251450 -0.236443243544720
159 7 2 0.000000 108.572796037052996 50.440345209479759 0.021769372036969
160 7 2 0.000000 108.035091880219724 50.031102869193219 -0.660136007499672
161 7 2 0.000000 107.131550430306959 49.904359762070833 -0.958714360845150
162 7 2 0.000000 106.672655120368248 49.230539984859249 -0.451780437779444
163 7 2 0.000000 106.711007486690932 49.636840948473733 0.417154900990589
164 7 2 0.000000 106.210156009834208 49.794713428893445 1.220786706021083
165 7 4 0.000000 105.696000689271884 50.521344559195583 1.580302361887824
166 7 2 0.000000 105.358332324520120 51.207570369832055 2.160538703616078
167 7 2 0.000000 105.846935157821918 51.820698731171944 1.606516245758889
168 7 2 0.000000 106.609654170208984 52.326398167437546 1.896564152670738
169 8 2 0.000000 52.047719152656477 110.094208089289964 70.561120577881582
170 8 2 0.000000 52.730811422708108 109.445432979445840 70.376524241399892
171 8 2 0.000000 53.589772228019378 109.802563357556849 70.613682897091195
172 8 2 0.000000 53.077877388844442 110.269181697928005 69.948979205168740
173 8 2 0.000000 53.738791500291967 109.581361303600076 70.057125598710542
174 8 2 0.000000 53.586206840323875 108.886596986989730 69.412439267300158
175 8 2 0.000000 52.643134582738924 109.013557086253257 69.285569845575992
176 8 2 0.000000 52.244062815062101 108.370231821197805 68.695252704045586
177 8 2 0.000000 51.565769064029446 108.619946143484256 69.327044081444072
178 8 2 0.000000 51.193325276394646 109.462325620838953 69.056336783456246
179 8 2 0.000000 50.484025265909054 109.636702921484201 69.679302313919067
180 8 2 0.000000 50.743209513351822 109.218772062794713 68.854828346329668
181 8 2 0.000000 50.114089171047901 108.812723843629200 68.254051816651696
182 8 2 0.000000 49.661596843306569 108.696517256805990 69.092709507556705
183 8 2 0.000000 50.442760839471703 108.652716478885282 69.649004665677694
184 8 2 0.000000 51.033570647058589 108.145439873302152 70.210444080652451
185 8 2 0.000000 50.859996533131408 107.423581026764026 69.601845828396463
186 8 2 0.000000 50.046380288804123 106.956604131820853 69.397980219339900
187 8 2 0.000000 49.692861067503650 107.066512166629181 70.283725320402098
188 8 2 0.000000 48.919747078239084 107.510625129998559 70.639616364642734
189 8 4 0.000000 48.714317427334912 106.983044143363188 69.864337730169794
190 8 2 0.000000 48.234026818035126 106.773962788506438 69.059846637820286
191 8 2 0.000000 48.023897732200410 106.043890063789036 68.472956883343372
192 8 2 0.000000 48.467831534748754 106.576168809916780 69.137187351912559
193 9 2 0.000000 70.080584187331581 79.753472349585110 35.752135107175015
194 9 2 0.000000 69.555026673445369 80.190880259921542 35.078292677839450
195 9 2 0.000000 69.011882366093332 80.561096848231799 34.378625657657004
196 9 2 0.000000 68.872582216336141 81.447327844573323 34.720371307813870
197 9 2 0.000000 69.810927262260094 81.255269451905917 34.785349370234911
198 9 2 0.000000 70.397945435131376 80.551517219387819 34.499442987052120
199 9 2 0.000000 69.770377859468596 80.246635054147760 35.158841048389327
200 9 2 0.000000 69.897855037661330 79.627084820953357 34.436686579048605
201 9 2 0.000000 69.733745215303585 80.437462442656454 34.924493996426150
202 9 2 0.000000 70.261178547416407 81.167698973260158 35.256410687100527
203 9 2 0.000000 69.751011888314764 80.364769342033370 35.127437871208585
204 9 2 0.000000 69.762797960558458 81.186906670907476 34.631906539229661
205 9 2 0.000000 69.201889837592276 80.479786848086121 34.958959491767388
206 9 2 0.000000 68.692965663025618 80.301896104482907 34.164635207937451
207 9 2 0.000000 68.453456304282682 81.177385850231488 34.477289925099406
208 9 2 0.000000 68.195397412835874 81.564221429899305 33.637430506596338
209 9 2 0.000000 69.057175798705984 81.471152019156136 34.050075751850684
210 9 2 0.000000 69.673758411802922 81.389781642360333 34.781379206653583
211 9 2 0.000000 69.399413479253880 82.257336226612722 35.087457466788678
212 9 2 0.000000 69.582009366640492 81.726197680695691 34.308900733499037
213 9 4 0.000000 69.296082608000788 81.992636775521973 33.432056335990595
214 9 2 0.000000 70.039526836919919 81.406573361948332 33.272618718856990
215 9 2 0.000000 69.487023869100739 80.622520849906692 33.232592116300708
216 9 2 0.000000 70.037872064600364 80.040372672669278 33.761051921067313
217 10 2 0.000000 56.013416483129731 69.193823784737901 18.866563256964906
218 10 2 0.000000 56.688082673593605 69.778661488960637 18.513873037133887
219 10 2 0.000000 56.060693895778044 70.035426702452554 19.193619274057305
220 10 2 0.000000 56.661529981730659 69.428299836166332 19.631789293628032
221 10 2 0.000000 56.017559510466619 68.755444148372590 19.399050694458090
222 10 2 0.000000 56.565160323385975 68.022844661755130 19.690652035157857
223 10 2 0.000000 55.726172934412773 67.582268581315034 19.537052300496736
224 10 2 0.000000 54.823620937774102 67.402025541546905 19.264082815061649
225 10 2 0.000000 54.243921461600500 66.681429479774195 19.006614694546293
226 10 2 0.000000 54.907507438452207 67.066343541796229 18.429471024232331
227 10 2 0.000000 55.549312438238879 67.317358636881679 17.761131466606063
228 10 2 0.000000 56.394628658827820 67.721010296833839 17.971145334307916
229 10 2 0.000000 57.308173743865026 67.781795844881600 17.682457796037053
230 10 2 0.000000 56.563577439449276 67.767216651519988 18.288233159163788
231 10 2 0.000000 57.061848924641730 68.210785191494480 18.978575449183019
232 10 2 0.000000 56.631244885744039 68.813876660340242 18.368279748812736
233 10 2 0.000000 57.227513748309278 69.112394940819641 19.058895618710597
234 10 2 0.000000 57.858607874430547 69.473588963161646 19.685680336296819
235 10 2 0.000000 57.197563421630647 70.044053000520833 19.286692850901186
236 10 2 0.000000 57.424376774895805 69.699651734952951 20.153608920111957
237 10 4 0.000000 56.770277991884818 70.400850142353022 20.108050435466840
238 10 2 0.000000 56.772361425486039 69.773544564378966 19.381356984865370
239 10 2 0.000000 56.180488539886788 69.170569340586269 19.837106221600397
240 10 2 0.000000 56.774779869347341 68.978734076372973 19.107985485965877
241 11 2 0.000000 37.778785125881967 28.511532073527228 113.512189378993398
242 11 2 0.000000 37.128300788473979 29.110752902475099 113.885558532703129
243 11 2 0.000000 36.384189866630798 29.157926338144097 113.280849013213910
244 11 2 0.000000 35.727673535864447 28.547429705283214 112.937512197968857
245 11 2 0.000000 36.273706775600758 28.213064668285170 113.652807747470163
246 11 2 0.000000 36.380130460434522 28.186800373325099 112.699086516650254
247 11 2 0.000000 36.242615752725577 27.286348997285721 113.002198747601952
248 11 2 0.000000 36.124044689545507 28.185939697857265 112.688706364247039
249 11 2 0.000000 35.930115738325497 27.782089989928593 111.839649843581526
250 11 2 0.000000 35.855496479888679 28.253867671067329 111.006908715829510
251 11 2 0.000000 36.403011918346806 28.379438322356926 110.228410895546943
252 11 2 0.000000 36.636925924984624 28.566296569515671 109.316287969090538
253 11 2 0.000000 36.502973371967677 28.333681702926629 108.394579209567226
254 11 2 0.000000 36.019329389403410 27.784629993433541 109.016053841738227
255 11 2 0.000000 35.792385623216617 28.445540470855136 109.674304453453331
256 11 2 0.000000 35.715114894299134 27.552377780588724 110.017655066047254
257 11 2 0.000000 35.805353235265315 27.877651488096276 110.916350819360886
258 11 2 0.000000 36.530158335596603 27.467175126204076 111.393599939696898
259 11 2 0.000000 36.489414455349475 27.751335400176217 112.309674650033600
260 11 2 0.000000 37.214172363640607 27.223912460100770 112.653405673730390
261 11 4 0.000000 36.830381593599839 27.777679797115006 111.969558920950448
262 11 2 0.000000 37.696013346071389 27.561664732545033 112.323986855786089
263 11 2 0.000000 38.441328707315840 27.940578255595259 112.795717238889324
264 11 2 0.000000 38.471945523140029 28.341555512586055 111.924006363676142
265 12 2 0.000000 65.582422070976705 51.854139304661580 79.480627068364427
266 12 2 0.000000 65.811689732803572 52.755875672136646 79.244178632519919
267 12 2 0.000000 65.204593273422915 52.016277470030317 79.321821329849158
268 12 2 0.000000 65.714517760356600 51.230407360215885 79.112094869607063
269 12 2 0.000000 65.435618625794675 51.786634289539776 78.381049812284658
270 12 2 0.000000 66.143017148152651 52.298370828363382 77.981909429213005
271 12 2 0.000000 65.395194006176638 51.764478150532391 77.703846204597511
272 12 2 0.000000 65.030015207833301 51.802953820240745 76.816848984714042
273 12 2 0.000000 64.136602666428715 51.998003000811458 76.524667794320663
274 12 2 0.000000 64.536684107099731 52.592540778068049 75.885872308859632
275 12 2 0.000000 64.336618829105362 52.140813250300724 76.708985985819410
276 12 2 0.000000 63.900684538816897 52.880675587769510 76.279841469198360
277 12 2 0.000000 64.322970763799660 52.900179830742481 75.417928521914320
278 12 2 0.000000 64.574988333080015 52.424281023319672 74.623191162865709
279 12 2 0.000000 65.231447188664546 53.119460347723688 74.537240724554920
280 12 2 0.000000 64.642834124942993 53.515228391801493 75.184158274558911
281 12 2 0.000000 65.297263982137622 53.049850403351925 75.710223755158850
282 12 2 0.000000 65.367328822231315 52.124300515748203 75.955271350003983
283 12 2 0.000000 65.268412584272653 53.064504974044901 76.122098069887571
284 12 2 0.000000 64.700586392432058 52.536695500633883 75.555890885512994
285 12 4 0.000000 64.188852529632854 51.952814909953830 76.120525200350230
286 12 2 0.000000 63.772464717862526 51.113346874405600 75.911923648337975
287 12 2 0.000000 63.017621328152771 51.701754850830127 75.837173997559645
288 12 2 0.000000 63.780944323377902 52.080592567573404 76.279237329372265
289 13 2 0.000000 121.307527807463003 97.850092217894456 45.219967747554207
290 13 2 0.000000 120.598631908549109 97.223360341535681 45.382059572329126
291 13 2 0.000000 121.044281935079638 97.758876595806484 44.721591257218478
292 13 2 0.000000 120.321695213039064 97.828787089844155 44.093434467910214
293 13 2 0.000000 119.395223572042525 98.077910443222692 44.127899714617783
294 13 2 0.000000 119.561401855802657 97.411079657843786 43.457585249849572
295 13 2 0.000000 120.111178159914502 97.693903625605031 42.723176223014455
296 13 2 0.000000 120.579053196130516 96.992037414492970 43.181517550176949
297 13 2 0.000000 121.467667500003969 96.776390228587076 43.473854530667559
298 13 2 0.000000 121.062888278697045 97.406047798927418 42.872784546296977
299 13 2 0.000000 120.636410077054364 97.968182647710790 42.221846181083407
300 13 2 0.000000 120.529203932410269 98.335869164775872 43.102137875761429
301 13 2 0.000000 120.504424899170772 98.221125572990914 42.149342038419555
302 13 2 0.000000 121.035936803090621 98.529648504287493 41.411840379536223
303 13 2 0.000000 120.867052724788664 97.677735523542424 41.002789720895805
304 13 2 0.000000 121.346596295119284 98.433091064652572 41.350749446537655
305 13 2 0.000000 122.133629000448337 97.911797068271198 41.525197404620201
306 13 2 0.000000 123.048847484479083 98.186804715164484 41.433841394206610
307 13 2 0.000000 122.573280189147852 98.945936486252847 41.779029316555551
308 13 2 0.000000 123.385477873148858 98.936741817054340 41.267316135015619
309 13 4 0.000000 122.725583473004676 98.807417484258380 40.582177756580116
310 13 2 0.000000 123.026679949265329 99.388665689719886 39.879973060190814
311 13 2 0.000000 122.790147507408008 98.460751203698962 39.811950192112910
312 13 2 0.000000 122.169239595203464 97.959205185618060 40.345358999978870
313 14 2 0.000000 40.468620141617976 5.733349907064767 108.585917278324516
314 14 2 0.000000 41.069290653118323 5.696686925183175 107.837952865819844
315 14 2 0.000000 40.222788763999461 5.845743822929072 107.410382295091964
316 14 2 0.000000 39.543055428131396 5.393636562853745 107.915517541829757
317 14 2 0.000000 38.718006225777998 4.907626212965212 107.847050370884489
318 14 2 0.000000 39.555818242572045 4.440711776136235 107.887817185773216
319 14 2 0.000000 39.935504830567645 3.605004027713500 108.168941098172112
320 14 2 0.000000 39.691317138258334 3.818514297892456 109.072481764358628
321 14 2 0.000000 39.060433639291773 3.490182721385753 108.427668313351020
322 14 2 0.000000 39.842341166697700 3.959818527402680 108.128230793502922
323 14 2 0.000000 39.894290175984239 4.840520028149625 107.749725619144328
324 14 2 0.000000 39.224529441313599 4.211256050373046 108.027299761611232
325 14 2 0.000000 39.798306670844838 4.875836410182198 108.415517015513473
326 14 2 0.000000 39.191521543916302 5.402996149983478 108.940411689206172
327 14 2 0.000000 39.055997272981571 6.171880526727321 109.499026034874845
328 14 2 0.000000 39.310910758203406 6.044043660252153 108.582359873929718
329 14 2 0.000000 39.288166303157041 6.078670921597013 107.623254226706010
330 14 2 0.000000 40.033104508396448 5.568636662160345 107.296861633996585
331 14 2 0.000000 40.351421774730632 5.003579748876700 108.004664433301514
332 14 2 0.000000 41.004523806406070 5.705037919567027 108.059565899522369
333 14 4 0.000000 41.893313902193185 5.351178766624590 108.139789745787610
334 14 2 0.000000 41.509319285803535 5.779642687743143 107.371306302320235
335 14 2 0.000000 41.621788059927411 5.018961533959644 107.946036636586385
336 14 2 0.000000 40.983924480076965 4.725470147431381 108.600706675257840
337 15 2 0.000000 14.370409145470193 77.246230306005117 120.143110480861722
338 15 2 0.000000 15.303027716770796 77.177889027361047 119.925965206682164
339 15 2 0.000000 16.097018364084349 77.165900732253917 119.386488485442939
340 15 2 0.000000 15.858308254183189 77.907438527584389 118.825472281107082
341 15 2 0.000000 16.795208692824747 77.940632138488468 118.618794386139086
342 15 2 0.000000 16.924010339377276 78.782538262070162 118.175844936516441
343 15 2 0.000000 16.989053918786436 77.975177627966829 118.691148865550474
344 15 2 0.000000 16.060961398246373 77.873776053578098 118.914670663210302
345 15 2 0.000000 16.646495186557360 77.117624524399773 118.998247260816783
346 15 2 0.000000 17.603106240769876 77.142070803973283 119.075043552220933
347 15 2 0.000000 16.721298481153728 77.489960379512965 118.923425880719336
348 15 2 0.000000 17.219543201721031 78.308631741511434 118.867484845062307
349 15 2 0.000000 16.818759193737488 77.917491521155426 119.647216534148043
350 15 2 0.000000 17.587377110249612 77.691857408456727 120.176287177449325
351 15 2 0.000000 18.126204966405247 76.914787464601474 120.341897695797385
352 15 2 0.000000 17.793572669499049 77.394474495622163 121.104036861124470
353 15 2 0.000000 17.143889842850449 77.173011749148074 120.432868866743007
354 15 2 0.000000 17.842014138983490 76.613165691081619 120.085313319504579
355 15 2 0.000000 18.492042631606548 77.069179317630443 120.624863624091631
356 15 2 0.000000 18.052734463855305 76.455441133634039 121.218103689538864
357 15 4 0.000000 17.689226686822916 76.102260246134975 122.033410599078053
358 15 2 0.000000 17.099564277412437 76.664482403159951 122.541155110696266
359 15 2 0.000000 16.327689125352826 77.187314871104931 122.770185589225903
360 15 2 0.000000 16.187277749459010 77.527145955464476 121.883393911534569
361 16 2 0.000000 9.111188993273311 42.638739071379852 72.596136642833173
362 16 2 0.000000 8.575048318776620 43.352321772985960 72.949623424932255
363 16 2 0.000000 7.827644568234450 43.918195034775259 72.742802039994814
364 16 2 0.000000 7.711625397575451 43.067834748810441 72.312654465209789
365 16 2 0.000000 6.975572312427203 43.484486699452077 71.858532226302401
366 16 2 0.000000 7.406906829948936 42.699297113722750 72.203536354475531
367 16 2 0.000000 7.004475830502466 43.370524080958731 71.647565447736966
368 16 2 0.000000 7.880927760202983 43.754297573672240 71.725986881125536
369 16 2 0.000000 7.300834498815953 44.003070235873345 72.449315278628859
370 16 2 0.000000 6.706925528305747 44.357773368929756 71.783689391100836
371 16 2 0.000000 6.055286531202494 45.032055687381508 71.577995510594889
372 16 2 0.000000 6.485994762312914 44.187414699682556 71.728567823961825
373 16 2 0.000000 6.067397079877511 44.797140521309750 71.116513575793618
374 16 2 0.000000 6.682956533406696 45.500437156975863 71.335740402235047
375 16 2 0.000000 6.240942178953893 44.712676574925027 71.660788976796752
376 16 2 0.000000 5.453562848018518 45.162166404862937 71.345205894236628
377 16 2 0.000000 5.207612122109527 44.270569173890486 71.602426846235289
378 16 2 0.000000 5.216863290137339 43.620471887148234 70.896106852421951
379 16 2 0.000000 5.407471454202170 43.007950445108300 70.181903792478096
380 16 2 0.000000 6.151706031845753 43.614297325907607 70.174264840676585
381 16 4 0.000000 5.901239007581385 43.994581829899268 71.019397946039263
382 16 2 0.000000 6.625075450937633 43.936764317104263 71.647345347087764
383 16 2 0.000000 6.220435720826094 43.121870967173301 71.341052159025153
384 16 2 0.000000 5.473951856257553 42.523213182765616 71.263781872970966
385 17 2 0.000000 57.744970468719586 50.761577383641921 102.873055479699730
386 17 2 0.000000 57.169561282028369 51.126142990766702 103.549514041603629
387 17 2 0.000000 56.445175541590473 50.744905167272201 104.051034750036905
388 17 2 0.000000 55.880624691905965 51.259411737442448 104.632554592666665
389 17 2 0.000000 55.247913496776192 51.795641798858270 105.116014895888597
390 17 2 0.000000 55.392204484288811 51.757579073000699 104.167684078176279
391 17 2 0.000000 54.979895048628265 51.818288233638768 103.302863098389196
392 17 2 0.000000 54.163915741062041 52.066196049278552 102.862046260497934
393 17 2 0.000000 53.851018331096100 51.384164577703991 103.460818573333498
394 17 2 0.000000 53.079501386101121 51.367444020076753 102.889782649298724
395 17 2 0.000000 53.669264096494913 51.702715378183903 102.210538170585821
396 17 2 0.000000 54.083571769645289 51.802224181982311 101.350278238974838
397 17 2 0.000000 54.932349967835691 52.191273377949713 101.573473878255200
398 17 2 0.000000 55.684327524843930 51.832864241712265 102.050624425585326