LAMMPS data file

19600 atoms
4 atom types
19100 bonds
1 bond types
18600 angles
1 angle types

0.0 125.146495 xlo xhi
0.0 125.146495 ylo yhi
0.0 125.146495 zlo zhi

Masses

1 1
2 1
3 1
4 1

Atoms

1 1 3 0.000000 93.873530299583550 9.651606627057815 113.266683852374982
2 1 3 0.000000 93.296719969315717 10.262723202978430 113.730824319832180
3 1 3 0.000000 93.943915493977713 9.591509676737406 113.502328466371821
4 1 3 0.000000 94.868952749670754 9.385281650781256 113.349436096090869
5 1 3 0.000000 94.147045965365621 9.509692196305419 113.969897707261609
6 1 3 0.000000 94.423747823277893 9.185510516226440 113.109698706954660
7 1 3 0.000000 94.253954581647918 9.264556196792743 114.051251698283664
8 1 3 0.000000 94.437789464477433 9.471523694052165 114.970473755750319
9 1 3 0.000000 95.354083827208143 9.215079291521958 114.843033929797656
10 1 3 0.000000 95.182420965163388 10.035630665008776 115.310823738647201
11 1 3 0.000000 94.414677964436066 10.330430853671050 114.815582854229419
12 1 3 0.000000 93.957854919099830 9.866878685459097 115.521296742852655
13 1 3 0.000000 93.945838943338245 9.062597667224189 116.045307868720712
14 1 3 0.000000 94.598588360935636 9.234419665158843 115.362669312197553
15 1 3 0.000000 95.013801919008358 8.987502479452246 114.533073263149987
16 1 3 0.000000 94.948282578088211 8.325552631575116 113.840881371503727
17 1 3 0.000000 95.778840533065249 8.623376736989766 114.219132988365189
18 1 3 0.000000 95.224301915409072 8.138781829144069 114.834969571248990
19 1 3 0.000000 95.197936567075487 8.433506463508182 115.748228712077150
20 1 3 0.000000 95.688936899731772 9.143653417241701 115.328454990371725
21 1 3 0.000000 94.819936247333445 9.184919330580152 114.922579405336563
22 1 3 0.000000 94.223656060163435 9.819621731495731 115.326563069190072
23 1 3 0.000000 94.948645912641268 10.336663404518278 114.967874315306972
24 1 3 0.000000 94.553441911362626 9.901233672698435 115.726698897157519
25 1 3 0.000000 93.880299867010010 10.518532145853440 115.431026133506094
26 1 3 0.000000 93.270695922558090 10.335446685067412 116.149679558292647
27 1 3 0.000000 93.944925634707474 10.861339332640460 115.713272387770019
28 1 3 0.000000 94.877156901368167 11.025995405735763 115.553794354633709
29 1 3 0.000000 94.173655299516142 10.443848399929701 115.850088734976438
30 1 3 0.000000 93.549826981598898 10.065308736662981 116.473904375288910
31 1 3 0.000000 93.013027476016077 9.512430663741196 115.901390508829479
32 1 3 0.000000 93.249285603098087 8.582389404868881 115.929769271714818
33 1 3 0.000000 92.291074892302149 8.639055663936245 115.944641016711628
34 1 3 0.000000 92.006739690809525 9.470628572325909 115.558325095185594
35 1 3 0.000000 91.363250614636399 8.816151286090681 115.839716798417982
36 1 3 0.000000 92.190655617959237 9.017288173444806 116.283050660221733
37 1 3 0.000000 93.039874219797341 9.442474585958081 116.423208717094099
38 1 3 0.000000 92.717533409519959 10.207799954558700 116.904844972172612
39 1 3 0.000000 93.546225118721978 10.428740541847946 117.336186261626921
40 1 3 0.000000 94.126112366912366 11.187269476773636 117.436009276341352
41 1 3 0.000000 94.470099080674004 10.991653782041979 118.310656428471930
42 1 3 0.000000 95.046875953851583 11.556832143852219 117.791520744946922
43 1 3 0.000000 94.522223930532988 11.159052193201623 117.092871072157962
44 1 3 0.000000 94.235033523641448 10.251758222233198 116.966620050642035
45 1 3 0.000000 93.745658959453564 9.447608925245172 116.778321234714838
46 1 3 0.000000 94.586055457635666 8.991081058645031 116.861483923829596
47 1 3 0.000000 95.068158718538811 8.210874791778535 116.577838675378658
48 1 3 0.000000 94.216151469584119 7.805330392059537 116.401154245998981
49 1 3 0.000000 93.619432333798230 7.865596398318010 117.150750324881869
50 1 3 0.000000 94.435641965917767 7.725859105857343 117.636420300823417
51 1 3 0.000000 93.730030678992847 8.052365449826421 118.199542240648270
52 1 3 0.000000 94.595290877727365 8.283475024352978 118.545248984938937
53 1 3 0.000000 95.438846534916649 8.377474601521971 118.993777615815489
54 1 3 0.000000 94.588779906560148 8.823176607076670 118.975435053313461
55 1 3 0.000000 95.189505877193909 8.321525711396216 118.419490193575456
56 1 3 0.000000 94.233479957303189 8.403382952994582 118.449719856077905
57 1 3 0.000000 94.633068703050697 9.074275846524253 117.891301052953125
58 1 3 0.000000 95.168739948831117 9.639673768933445 117.330068921140082
59 1 3 0.000000 95.644229254117931 9.231230605519556 116.602962255775012
60 1 3 0.000000 96.311272674636228 9.670204349687015 117.135836656619006
61 1 3 0.000000 96.876849605509207 10.409832057312018 117.369660499239217
62 1 3 0.000000 96.063975009999112 10.130955484971981 117.797518827864678
63 1 3 0.000000 96.449190703457106 9.289512612051416 117.542209679722930
64 1 3 0.000000 96.695457797968800 9.108561242041375 116.632149725735147
65 1 3 0.000000 95.747527740790332 9.157827437311436 116.488617678089938
66 1 3 0.000000 95.046088003202556 9.813205811996378 116.480776726099322
67 1 3 0.000000 95.776069557776296 9.753755107557811 117.101415545159071
68 1 3 0.000000 95.661677993009320 10.481674951889813 117.716758758445636
69 1 3 0.000000 96.020335972445437 11.196221384803660 117.185356981071024
70 1 3 0.000000 96.385634624627400 12.028213403913290 116.875605185512200
71 1 3 0.000000 95.765133547222234 11.479111916435135 116.390769162316403
72 1 3 0.000000 95.162068542777931 10.946551624264018 115.867040095319737
73 1 3 0.000000 95.144619364525298 11.690991748223873 115.261148662786695
74 1 3 0.000000 94.686196846608055 11.096969898864440 114.662327456123123
75 1 3 0.000000 94.325675207559613 10.402745748517834 114.105841178796041
76 1 3 0.000000 94.345180821045204 9.792113583161626 114.846346337235161
77 1 3 0.000000 93.869094559569305 9.178871657928045 115.411037591612015
78 1 3 0.000000 94.471265095125034 8.457957183327922 115.212863510510175
79 1 3 0.000000 93.936825532611039 9.070373605552433 114.702059751900691
80 1 3 0.000000 93.343574927809883 9.782375587967316 114.451646299905136
81 1 3 0.000000 92.935941617510792 9.706865621158084 115.317517727570390
82 1 3 0.000000 93.163251158120190 10.298840883677718 114.596757253270667
83 1 3 0.000000 93.473504148655564 9.890336467205936 113.785297319825460
84 1 3 0.000000 93.820716134888812 10.017385492361049 114.671244486321910
85 1 3 0.000000 94.090990259345247 10.556885903928549 113.924591150718427
86 1 3 0.000000 94.518026381151884 9.972181186214232 113.294225745770660
87 1 3 0.000000 93.958494183721925 10.550811278319941 112.771051839168905
88 1 3 0.000000 94.707443503154096 10.929027515186299 113.237557353705171
89 1 3 0.000000 94.017851043122178 10.538220892156531 113.779159073110861
90 1 3 0.000000 94.955525624962377 10.624430418081237 113.966066259197021
91 1 3 0.000000 95.109124135291580 10.745254320476054 113.026167816685955
92 1 3 0.000000 94.721819506895159 10.938590978820281 112.169303730985661
93 1 3 0.000000 94.139988861185955 11.701914373113123 112.149043043957164
94 1 3 0.000000 93.939947621325729 12.498592080531647 111.652164655558607
95 1 3 0.000000 94.387796339458902 12.160374957448820 112.431036084820235
96 1 3 0.000000 95.344061805021454 12.189562236716998 112.351635441867160
97 1 3 0.000000 95.737076476980519 11.846406920357087 113.157479034929011
98 1 3 0.000000 94.905280275031302 11.386852688766929 113.021372508081726
99 1 3 0.000000 94.379704630186694 10.851831298715402 112.422104326268695
100 1 3 0.000000 94.929066574673726 10.245287606208644 112.924006909475523
101 2 3 0.000000 31.546284652490087 73.176890951701523 101.963290062069234
102 2 3 0.000000 31.065375110589528 72.753961404749376 102.678452009339807
103 2 3 0.000000 30.135888241683993 72.883257757933194 102.476124024163397
104 2 3 0.000000 30.665059682306445 73.452132837575064 103.040002317939653
105 2 3 0.000000 30.110789933357232 74.026782835275526 102.506933442893811
106 2 3 0.000000 29.270118487730787 73.749264830161579 102.135644771714738
107 2 3 0.000000 28.779333963099820 73.242763184324133 101.484348653849210
108 2 3 0.000000 29.476926218897081 73.896947629483734 101.400636310894768
109 2 3 0.000000 29.805652438457297 73.319910413290799 102.093865799377440
110 2 3 0.000000 29.342054995412965 73.929797511345328 102.672411509265075
111 2 3 0.000000 29.834476550292688 74.477984398964466 103.287726183665313
112 2 3 0.000000 30.223624539954379 73.603873354452048 103.365788492135437
113 2 3 0.000000 30.575040531631416 73.008673041117319 104.032004213805138
114 2 3 0.000000 29.725720154041209 73.320286037925285 104.353177432536697
115 2 3 0.000000 30.376055472113492 73.876614409851712 104.788105836595946
116 2 3 0.000000 30.987810872297526 74.606817106703687 104.669112761773221
117 2 3 0.000000 30.529527947503741 75.183118982122863 104.053115270519569
118 2 3 0.000000 30.753910152553814 76.075232629576945 104.327680137323455
119 2 3 0.000000 31.280023112814948 76.713529497745029 104.814899042059380
120 2 3 0.000000 31.867120571905566 76.898287517902361 104.078162286143893
121 2 3 0.000000 30.919912707559259 77.047511150943777 104.032015032028113
122 2 3 0.000000 30.150478447384806 76.481329782104140 103.937096241218995
123 2 3 0.000000 30.365569994068029 77.195766047368764 103.333013093448628
124 2 3 0.000000 29.589527572137573 76.631027376560638 103.312315435170774
125 2 3 0.000000 28.992405427406613 77.376618311666149 103.407915130569805
126 2 3 0.000000 29.100962425870406 76.928012752757681 104.249680199101959
127 2 3 0.000000 28.479031788429570 76.244822286646411 103.988810367141468
128 2 3 0.000000 28.327670749220285 75.585239907910008 103.307898536233893
129 2 3 0.000000 27.935038478184271 75.764006499624131 102.450295827849629
130 2 3 0.000000 27.537793504465480 76.538613819341577 102.045598495148624
131 2 3 0.000000 28.132377832915481 76.813698170353064 102.747309316064374
132 2 3 0.000000 28.698590156561977 77.550969086681235 102.986965737817386
133 2 3 0.000000 29.058563734080575 78.439783623887507 103.031996193503147
134 2 3 0.000000 29.515750080660617 78.579303018081475 103.864531467917715
135 2 3 0.000000 28.834263124382566 78.013423075947159 103.494456584261798
136 2 3 0.000000 28.416669186480139 78.785377641203709 103.883431457751996
137 2 3 0.000000 28.827069145099340 78.359996905313068 104.639885754784203
138 2 3 0.000000 28.725764861142345 79.274520671325831 104.913717315145306
139 2 3 0.000000 28.369233290232582 79.803775318281595 104.196518069732747
140 2 3 0.000000 28.104149857102207 79.001608001000548 103.740603199865632
141 2 3 0.000000 28.806873744780866 78.434310829006264 103.415098889090672
142 2 3 0.000000 28.692916056188100 79.347614017276882 103.142168620513999
143 2 3 0.000000 28.583203916448916 79.808034257677306 103.977379042278159
144 2 3 0.000000 28.904299938666728 80.448719803251493 104.616142986320241
145 2 3 0.000000 28.563259819157004 80.034780614338800 103.819935736436705
146 2 3 0.000000 29.215012815381037 79.528462881322525 104.310303338492815
147 2 3 0.000000 29.188454157601363 78.596902452238155 104.540715587865748
148 2 3 0.000000 29.905699354111288 77.963698762905395 104.461896707520907
149 2 3 0.000000 30.158454979612326 77.345098956693334 105.151134600800134
150 2 3 0.000000 29.540303981067670 76.971146716888626 105.783312633749148
151 2 3 0.000000 29.627639595033507 77.902813673106934 105.997716862308508
152 2 3 0.000000 30.199896766642311 77.939150356264790 105.227780907180176
153 2 3 0.000000 29.746976649842185 78.646954325229927 105.691975811627600
154 2 3 0.000000 30.142209708940722 79.064339769035286 106.460858260572181
155 2 3 0.000000 30.787643566197442 78.436826336596269 106.794387911450968
156 2 3 0.000000 31.332591384388689 78.017018111591710 107.464009393832711
157 2 3 0.000000 30.837349694968868 77.393873036265774 108.000689824030829
158 2 3 0.000000 30.265414785670323 77.186865278884738 107.257966290062953
159 2 3 0.000000 29.465936054168214 77.403072327717268 106.772488927139705
160 2 3 0.000000 29.173488337449516 77.236900308504133 107.671633627961910
161 2 3 0.000000 29.769426956408708 76.643911186749861 108.135121560829759
162 2 3 0.000000 30.135297144952641 77.164062785201551 108.854274757139819
163 2 3 0.000000 29.478761078957081 77.815605372388347 109.111281860405484
164 2 3 0.000000 28.765843609547307 77.355881349235432 109.560728747530604
165 2 3 0.000000 28.432002090152327 78.141872982437903 109.999325364553300
166 2 3 0.000000 28.957122481409783 78.014078932563606 109.205904129960771
167 2 3 0.000000 28.833443112992136 77.885178054447522 108.262671402873380
168 2 3 0.000000 29.567886747267870 77.312356949597472 108.495197809782823
169 2 3 0.000000 30.142724986373310 77.871292287915907 107.967227842416293
170 2 3 0.000000 30.594532115431825 78.714831433320697 108.044117557604110
171 2 3 0.000000 29.908806333707201 78.979703107594901 107.426684849978955
172 2 3 0.000000 30.086144182370237 79.547818785642889 106.673428012115778
173 2 3 0.000000 29.542009408864551 79.308467851280483 107.427237323866279
174 2 3 0.000000 28.865253489585992 79.989206647694303 107.413233153827036
175 2 3 0.000000 28.540597783901983 79.493809743762881 108.168733372451740
176 2 3 0.000000 27.734735747586942 79.839329792499839 107.777834057605858
177 2 3 0.000000 28.467280938064913 79.445703216153206 108.257454389015209
178 2 3 0.000000 28.025267033817624 79.682936706537021 107.438953332514743
179 2 3 0.000000 28.884743504411908 79.463236206781730 107.072031151525266
180 2 3 0.000000 28.651251081689079 78.788989297676082 107.714271288929112
181 2 3 0.000000 29.402736989302721 79.115884024510038 107.214262520779741
182 2 3 0.000000 28.749470998115694 79.568433879310916 107.752818157346780
183 2 3 0.000000 29.159201593071636 79.780103068870972 106.910846071260764
184 2 3 0.000000 29.821912931744503 80.270913938556262 106.419400884293609
185 2 3 0.000000 29.276747296547150 80.735287624684773 107.058737657701244
186 2 3 0.000000 30.205500256130346 80.755216053296706 106.816620335316998
187 2 3 0.000000 30.023235115957721 80.171971735694328 106.076211337085354
188 2 3 0.000000 30.558446308430273 79.594889986244169 106.625870898908531
189 2 3 0.000000 30.961181497055634 79.020545167041618 107.281258110027338
190 2 3 0.000000 30.408689052556873 79.681076010428939 106.856933819294639
191 2 3 0.000000 31.210340213154346 79.302580133347377 107.225303589695230
192 2 3 0.000000 32.102505231571847 79.051311981249683 107.475315380724197
193 2 3 0.000000 32.088086867208936 79.197424539872600 108.424021463229082
194 2 3 0.000000 31.876426052062182 78.544827572473579 109.095524923736193
195 2 3 0.000000 32.285468659649126 79.408484991081124 109.187067309889429
196 2 3 0.000000 33.161192506329563 79.042563868259606 109.331322210077460
197 2 3 0.000000 33.410795044272994 79.968663384055034 109.371797633431214
198 2 3 0.000000 33.861136468719806 79.588134936710659 108.614175892594204
199 2 3 0.000000 33.665753264994621 80.126234763933454 109.384808087382936
200 2 3 0.000000 33.559312714421011 79.390010880839483 109.991639862387856
201 3 3 0.000000 118.061870451252233 17.203320685948025 1.414138563609517
202 3 3 0.000000 118.338971156926732 17.549480012120469 2.265601375374386
203 3 3 0.000000 119.249386804092765 17.850376054461773 2.218644787991928
204 3 3 0.000000 119.291299111538578 17.904066959145887 3.176225408743397
205 3 3 0.000000 119.095453503623389 18.553340957640440 3.855701510412342
206 3 3 0.000000 118.875585916212515 19.322662407433995 3.325227429147611
207 3 3 0.000000 118.998101598181208 20.159874523797754 2.871723537339104
208 3 3 0.000000 119.338545004233538 19.334713554503015 2.518442258429421
209 3 3 0.000000 119.722657841959915 18.700386990046109 1.908780764222935
210 3 3 0.000000 120.043594386690486 17.796993786503155 1.958584921165945
211 3 3 0.000000 119.233120805940317 18.233892566173658 1.686827619095856
212 3 3 0.000000 119.602520779834421 19.036257331960570 2.062798950331029
213 3 3 0.000000 120.263573806253092 19.523726696279464 2.559772304861484
214 3 3 0.000000 120.228372549535337 18.986575785646185 1.764895100048482
215 3 3 0.000000 120.575034888085611 19.087872548997861 0.875420992069315
216 3 3 0.000000 119.734541382689883 18.674358172117316 0.665238862713147
217 3 3 0.000000 118.891125181297966 19.113344255810425 0.797678771930191
218 3 3 0.000000 118.332535799471771 19.893638396426688 0.770865405283026
219 3 3 0.000000 118.514723312588231 19.017754115661525 0.422678046562276
220 3 3 0.000000 118.164273052587305 18.125860629988011 0.480216081621083
221 3 3 0.000000 118.464005536996524 17.285243988640396 0.833944932691125
222 3 3 0.000000 117.761129656068803 17.790487563288604 1.249028570391757
223 3 3 0.000000 118.627431156706777 17.618970120923489 0.872593347601809
224 3 3 0.000000 118.107207712135732 16.922784868788927 0.464802148053597
225 3 3 0.000000 118.275186991598630 17.652599539650204 1.065429743046344
226 3 3 0.000000 119.189402076704880 17.519960349537648 1.326614779774071
227 3 3 0.000000 118.611469373955302 17.169536415906656 0.644854662261206
228 3 3 0.000000 118.858598570834886 17.803480145243363 -0.032376840316987
229 3 3 0.000000 118.530389223190241 17.966562836122446 0.854912661511090
230 3 3 0.000000 119.073691813255479 17.294313294689708 1.272648043866810
231 3 3 0.000000 119.523339469311765 18.090256104741695 0.979574625540220
232 3 3 0.000000 119.607328922159439 17.789947604512559 1.887517672487811
233 3 3 0.000000 120.377857781743216 18.247863680097520 1.543718102579117
234 3 3 0.000000 120.154638475403317 19.033955807704995 2.047535835683748
235 3 3 0.000000 120.454907440068268 19.351956614741457 1.192951705487549
236 3 3 0.000000 120.791087076269008 18.645716254864279 1.749555519959290
237 3 3 0.000000 120.426404187317317 19.472492475991501 1.425445244459671
238 3 3 0.000000 120.127378007076203 19.263924657223917 2.313523398962381
239 3 3 0.000000 120.468343304431869 18.741953426025727 1.583531138866007
240 3 3 0.000000 120.872900833302722 18.117371523939276 0.977040699188694
241 3 3 0.000000 120.526572636326321 18.437078180628220 1.813368645420225
242 3 3 0.000000 120.404460707237845 17.721442128200895 2.441503756077578
243 3 3 0.000000 119.749282439651822 17.606693044122963 1.749279742201834
244 3 3 0.000000 120.013503936146805 16.998393692172378 2.443368280650966
245 3 3 0.000000 120.032302869085726 17.289580054149631 3.357948568388904
246 3 3 0.000000 120.196247024194420 16.380163223541977 3.097788344270722
247 3 3 0.000000 120.946373540813525 16.929058305402872 3.337839168418064
248 3 3 0.000000 121.363745488536736 17.053865119668693 2.482372093442907
249 3 3 0.000000 121.570964137250144 17.518411708951756 1.668211852451699
250 3 3 0.000000 121.487243251661596 18.401334185769798 1.300735712755849
251 3 3 0.000000 121.745272713441395 19.168464974427920 0.784469163436220
252 3 3 0.000000 121.123588339915955 18.500985786517742 0.485169859359087
253 3 3 0.000000 121.199074640387835 19.044096932618039 -0.302822590746046
254 3 3 0.000000 120.571255358802944 18.365436732096395 -0.044243237552206
255 3 3 0.000000 120.825391652636000 18.644965468967015 0.838297656356009
256 3 3 0.000000 120.421767941737130 19.258764918273577 0.220286219543399
257 3 3 0.000000 121.200315999435418 18.782182088400358 -0.076920321643449
258 3 3 0.000000 120.570198358627209 19.371217976408559 0.344492162012040
259 3 3 0.000000 121.304648040292108 18.784634129980386 0.539692203538325
260 3 3 0.000000 121.611067003942395 19.114398896289934 1.387608837185934
261 3 3 0.000000 121.123490071338509 19.747586005622324 0.855685140244466
262 3 3 0.000000 121.733086150157732 20.057245269900037 1.529557354195459
263 3 3 0.000000 121.143497926393763 20.409882310068056 2.200104029901477
264 3 3 0.000000 122.101068442348534 20.348161358646180 2.229245600375377
265 3 3 0.000000 121.544786803452965 19.991033219468278 2.925385119749901
266 3 3 0.000000 121.245664439095123 20.532072960588874 2.190945326663270
267 3 3 0.000000 121.053898297267466 21.225381343998187 2.826672652128287
268 3 3 0.000000 120.269662925661265 20.890484647372190 2.385742856683833
269 3 3 0.000000 119.573461282238085 21.250457950988707 2.940109605667105
270 3 3 0.000000 119.503927437385158 20.801651482933998 3.785886052875364
271 3 3 0.000000 119.285206473792641 20.267432620716189 3.018832373309278
272 3 3 0.000000 119.274211104184019 19.533942681395196 3.638083219705191
273 3 3 0.000000 119.484502739435854 20.042078180252552 4.424960429277368
274 3 3 0.000000 118.920542112058101 20.354820958417509 5.136114677997959
275 3 3 0.000000 119.259359026833081 20.914706692908485 5.838489978372240
276 3 3 0.000000 119.427842464748608 19.969610800211935 5.835828257824944
277 3 3 0.000000 118.988808952111484 20.165218274380539 5.004812439184358
278 3 3 0.000000 119.618632515092017 20.509448919320281 5.642329139043177
279 3 3 0.000000 120.252615622575291 20.266169166488858 6.320916186729868
280 3 3 0.000000 120.647191548778622 20.679496585878301 5.549508199448401
281 3 3 0.000000 120.278275613071926 21.345767143060900 6.133960573054023
282 3 3 0.000000 119.655125018202227 21.812058841490700 5.571950441393581
283 3 3 0.000000 119.128959927846807 21.009248828139583 5.556253940049352
284 3 3 0.000000 118.615990698434985 21.016346946359349 6.367679960333628
285 3 3 0.000000 118.989415124808815 21.539589181524278 7.080681896605184
286 3 3 0.000000 119.881213463471624 21.585224064117131 6.728242993177954
287 3 3 0.000000 119.958281040977511 22.344359919007868 6.145685406053137
288 3 3 0.000000 120.133419356076189 22.648227302476105 5.252046114253273
289 3 3 0.000000 119.827183394808998 23.555590170628779 5.319218739068095
290 3 3 0.000000 119.707422883749075 24.457831692924689 5.013903073836476
291 3 3 0.000000 119.481053529179079 24.844680116143692 4.164959487510190
292 3 3 0.000000 120.097925973753007 24.509915100830018 3.509977982696943
293 3 3 0.000000 120.916074041038001 24.470979871234100 3.009260709283953
294 3 3 0.000000 120.243699422402713 25.113566728481317 3.247156701491055
295 3 3 0.000000 120.582069180865531 25.662160975925033 2.535714322777585
296 3 3 0.000000 120.182447342887841 26.494866669962999 2.273982372629944
297 3 3 0.000000 119.585616375041738 26.487189191698633 3.025869233897899
298 3 3 0.000000 120.519689964019790 26.403382507444253 3.231010575533245
299 3 3 0.000000 120.963411127912792 27.014668462299213 3.823497714727425
300 3 3 0.000000 121.766920782110375 26.786278074927797 3.350412028442566
301 4 3 0.000000 34.955056090366540 97.068370109207507 51.846298973584965
302 4 3 0.000000 34.888570612739500 96.264434448255571 52.366747947370570
303 4 3 0.000000 34.225109672020849 95.581234820421471 52.487817549947252
304 4 3 0.000000 33.490737635021503 94.972838529036480 52.598052135728786
305 4 3 0.000000 33.956375379837816 94.613683525960653 51.839244403580530
306 4 3 0.000000 33.325589448568543 94.680125888211222 52.559865331261179
307 4 3 0.000000 32.855686952865895 94.832003317908800 53.383105813065178
308 4 3 0.000000 32.570498900133835 94.141639313198681 53.986152507425984
309 4 3 0.000000 32.530809832255393 94.810130737975669 54.674007138064297
310 4 3 0.000000 32.871882889703109 95.023304318990654 55.545687236403424
311 4 3 0.000000 31.940125575605844 94.947767437344112 55.327232465026448
312 4 3 0.000000 32.759506752062471 95.364067553608734 55.049908284929181
313 4 3 0.000000 32.173703870040505 94.608148330268236 54.966116213710848
314 4 3 0.000000 32.133667868500652 95.392336307417708 55.518426212782856
315 4 3 0.000000 32.834271080418652 95.054871468117554 54.955511812819331
316 4 3 0.000000 32.771957591765229 95.808666769646578 55.546705243537751
317 4 3 0.000000 32.072391575685216 96.182298608337433 55.005773974093621
318 4 3 0.000000 31.161243349374093 96.396005766602173 55.219638791668892
319 4 3 0.000000 30.947401308296325 97.331384181912782 55.250278661751992
320 4 3 0.000000 30.079183267569249 97.684181609730871 55.458440638781831
321 4 3 0.000000 29.426115802955422 98.358362834313922 55.659891781947046
322 4 3 0.000000 28.692503171966436 98.646590340809183 56.207922266640139
323 4 3 0.000000 28.344858961295216 98.010535418997677 55.578495829932770
324 4 3 0.000000 28.806846832486848 98.580580922866488 56.197539713991716
325 4 3 0.000000 29.134752819154581 97.703642497026578 56.409805258046525
326 4 3 0.000000 29.225471007656292 97.043303348417240 57.100690501114336
327 4 3 0.000000 28.742884684346993 97.717198301185093 56.616360001157098
328 4 3 0.000000 29.078812437437431 98.554924667535502 56.289301780308030
329 4 3 0.000000 28.449561050718518 98.513316655279596 55.565484492846309
330 4 3 0.000000 27.775676465280434 97.901033453381430 55.261200339163821
331 4 3 0.000000 26.869840328772604 97.959510526105745 54.948724218856739
332 4 3 0.000000 27.392527631748500 98.204256512386834 54.181588386355692
333 4 3 0.000000 27.924667332245267 97.922785451182222 53.433790699237335
334 4 3 0.000000 28.550484430848073 98.417928380145881 52.900136842328521
335 4 3 0.000000 29.219163964610221 99.060479107292394 53.148322748800098
336 4 3 0.000000 29.814633106226562 99.610280924726382 52.633799218794934
337 4 3 0.000000 29.426215694939145 100.306124156046508 52.098510406998209
338 4 3 0.000000 29.683482186812427 100.973023901473226 52.739336968330520
339 4 3 0.000000 29.992514153161370 101.875782155196887 52.844820517324244
340 4 3 0.000000 29.324780664439025 101.847800543709155 52.155655067336191
341 4 3 0.000000 29.374445710562863 102.482788591279643 52.873933260403568
342 4 3 0.000000 29.898252500674715 102.521045176101723 52.070339531986981
343 4 3 0.000000 29.699234597391502 103.221522533571800 51.444781104784141
344 4 3 0.000000 30.299856736741944 103.856528463809937 51.047766603431249
345 4 3 0.000000 29.825992206164262 103.078278798742431 50.745475575640626
346 4 3 0.000000 30.552393066978013 103.589431048610848 51.109707873581790
347 4 3 0.000000 31.347644244095314 103.891963043007095 50.665129469180307
348 4 3 0.000000 30.980311029133681 104.466850491094235 49.989725344808981
349 4 3 0.000000 30.968683764251544 103.666401595837627 49.459870295957096
350 4 3 0.000000 30.682449834697202 103.048581625512767 48.783136506465489
351 4 3 0.000000 31.083290734573733 102.434114907451388 49.402294988100877
352 4 3 0.000000 30.829575269159225 103.082937988740838 48.741797394013226
353 4 3 0.000000 30.438745919190623 103.284111025969892 49.595250279821904
354 4 3 0.000000 29.965966560954417 104.068585016134605 49.307708566011854
355 4 3 0.000000 29.225350405983374 103.483045221682914 49.481578805297886
356 4 3 0.000000 29.891532751491091 102.798586438970531 49.385052864216071
357 4 3 0.000000 29.806918526765799 102.247791667651896 50.166759684489627
358 4 3 0.000000 29.396581561506412 102.196382975847627 49.300399065954430
359 4 3 0.000000 30.157818913925727 102.677457969699034 49.633091932683641
360 4 3 0.000000 30.557509870197883 103.434644760682190 50.067275422736955
361 4 3 0.000000 29.648456128112628 103.268833031480852 50.327521007637166
362 4 3 0.000000 30.241531867790684 103.194477239211295 49.576300412098618
363 4 3 0.000000 30.627802694977845 103.685089460924416 48.847126567278423
364 4 3 0.000000 31.398402642398278 103.820295587712394 49.403449337183289
365 4 3 0.000000 31.189470275647750 103.829285944385219 48.466504066844131
366 4 3 0.000000 30.510310242552627 104.415825450120195 48.125457064719207
367 4 3 0.000000 29.677700964536491 103.973195334198934 48.305569170478300
368 4 3 0.000000 30.533706771378672 103.719459459610036 47.952763041564587
369 4 3 0.000000 29.826503718216067 104.193592333491338 48.396228778124410
370 4 3 0.000000 30.324406613985836 103.428373635400447 48.693100889438625
371 4 3 0.000000 30.047269266366463 103.987290528841640 47.963438778060670
372 4 3 0.000000 30.169788967980374 104.900498130158397 48.232958349917219
373 4 3 0.000000 29.593859200537526 105.545668326563899 47.816232635995803
374 4 3 0.000000 29.981386167624581 104.916663113154186 47.203227504464508
375 4 3 0.000000 30.626705655636446 104.206071348258078 47.218130593202581
376 4 3 0.000000 30.201028748220040 104.705947560783699 46.517757162350556
377 4 3 0.000000 30.904528907910940 104.191255232747523 46.919975178823684
378 4 3 0.000000 30.870675384890614 103.596986626133514 46.166782798238110
379 4 3 0.000000 30.715745772127711 102.906083247601828 45.518516389558279
380 4 3 0.000000 29.794463850588446 102.940840751454090 45.786157075872744
381 4 3 0.000000 30.245071399963226 103.375136571897144 45.058187312220333
382 4 3 0.000000 30.551190274091162 103.703041119438581 45.906933353509658
383 4 3 0.000000 31.322776802791321 104.271719208622571 45.853459438275301
384 4 3 0.000000 31.330077457874321 105.168786275359636 45.511673864836162
385 4 3 0.000000 32.177003392397751 105.584801071629812 45.688445329490129
386 4 3 0.000000 32.285115268432399 106.410989838252263 46.165230337818983
387 4 3 0.000000 31.664597499950624 105.765256618041050 46.511042869856304
388 4 3 0.000000 31.286470143935912 105.539311422166122 45.658066626872738
389 4 3 0.000000 31.752723822667232 105.420867853057075 44.827296726114277
390 4 3 0.000000 31.414731714248386 104.995133717667372 44.036024471697019
391 4 3 0.000000 32.036578041686489 105.625175135223870 43.664601589775152
392 4 3 0.000000 31.278522679997927 105.309992456151505 44.162207807007206
393 4 3 0.000000 30.330914216739394 105.455224843782673 44.111752342052924
394 4 3 0.000000 29.914775123547926 106.112148165453561 44.674673299703883
395 4 3 0.000000 30.550366208678337 105.553233503599529 44.221640880039082
396 4 3 0.000000 30.890514333815521 105.297470413149370 43.361126792688360
397 4 3 0.000000 30.484638658877213 105.821833539586351 42.666930676215060
398 4 3 0.000000 29.847761234188663 106.078692318095008 43.337759055031221
399 4 3 0.000000 29.301483971810676 105.325867483764370 43.100196597088356
400 4 3 0.000000 29.384077107039161 106.274996116357386 43.218235627943542
401 5 3 0.000000 56.314910886362988 36.079992644318935 99.054020902398122