LAMMPS data file

8030 atoms
5 atom types
4220 bonds
1 bond types
4040 angles
1 angle types

0.0 120.000000 xlo xhi
0.0 75.000000 ylo yhi
0.0 75.000000 zlo zhi

Masses

1 0.100000
2 1
3 1
4 1
5 0.100000

Atoms

1 1 1 0.000000 30.810702135199456 20.340346763273438 23.500000000000000
2 1 1 0.000000 31.806756349300418 20.427490215264491 23.500000000000000
3 1 1 0.000000 32.796058456211199 20.572401636191547 23.500000000000000
4 1 1 0.000000 33.775260970758204 20.774590691676806 23.500000000000000
5 1 1 0.000000 34.741050581591459 21.033373237957942 23.500000000000000
6 1 1 0.000000 35.690159362381401 21.347873636814032 23.500000000000000
7 1 1 0.000000 36.619375829447129 21.717027718448094 23.500000000000000
8 1 1 0.000000 37.525555808400640 22.139586382300848 23.500000000000000
9 1 1 0.000000 38.405633073037649 22.614119823611610 23.500000000000000
10 1 1 0.000000 39.256629720476525 23.139022371425003 23.500000000000000
11 1 1 0.000000 40.075666247438981 23.712517921673211 23.500000000000000
12 1 1 0.000000 40.859971293577658 24.332665946949930 23.500000000000000
13 1 1 0.000000 41.606891018882337 24.997368062640845 23.500000000000000
14 1 1 0.000000 42.313898083434452 25.704375127192964 23.500000000000000
15 1 1 0.000000 42.978600199125374 26.451294852497647 23.500000000000000
16 1 1 0.000000 43.598748224402087 27.235599898636323 23.500000000000000
17 1 1 0.000000 44.172243774650298 28.054636425598773 23.500000000000000
18 1 1 0.000000 44.697146322463688 28.905633073037649 23.500000000000000
19 1 1 0.000000 45.171679763774449 29.785710337674661 23.500000000000000
20 1 1 0.000000 45.594238427627204 30.691890316628168 23.500000000000000
21 1 1 0.000000 45.963392509261269 31.621106783693897 23.500000000000000
22 1 1 0.000000 46.277892908117359 32.570215564483838 23.500000000000000
23 1 1 0.000000 46.536675454398491 33.536005175317094 23.500000000000000
24 1 1 0.000000 46.738864509883754 34.515207689864106 23.500000000000000
25 1 1 0.000000 46.883775930810813 35.504509796774883 23.500000000000000
26 1 1 0.000000 46.970919382801867 36.500564010875841 23.500000000000000
27 1 1 0.000000 47.000000000000000 37.500000000000000 23.500000000000000
28 1 1 0.000000 46.970919382801867 38.499435989124152 23.500000000000000
29 1 1 0.000000 46.883775930810813 39.495490203225117 23.500000000000000
30 1 1 0.000000 46.738864509883754 40.484792310135894 23.500000000000000
31 1 1 0.000000 46.536675454398491 41.463994824682906 23.500000000000000
32 1 1 0.000000 46.277892908117359 42.429784435516162 23.500000000000000
33 1 1 0.000000 45.963392509261269 43.378893216306096 23.500000000000000
34 1 1 0.000000 45.594238427627204 44.308109683371825 23.500000000000000
35 1 1 0.000000 45.171679763774449 45.214289662325335 23.500000000000000
36 1 1 0.000000 44.697146322463688 46.094366926962344 23.500000000000000
37 1 1 0.000000 44.172243774650298 46.945363574401227 23.500000000000000
38 1 1 0.000000 43.598748224402094 47.764400101363677 23.500000000000000
39 1 1 0.000000 42.978600199125374 48.548705147502353 23.500000000000000
40 1 1 0.000000 42.313898083434452 49.295624872807032 23.500000000000000
41 1 1 0.000000 41.606891018882337 50.002631937359155 23.500000000000000
42 1 1 0.000000 40.859971293577658 50.667334053050070 23.500000000000000
43 1 1 0.000000 40.075666247438981 51.287482078326789 23.500000000000000
44 1 1 0.000000 39.256629720476532 51.860977628574993 23.500000000000000
45 1 1 0.000000 38.405633073037649 52.385880176388390 23.500000000000000
46 1 1 0.000000 37.525555808400640 52.860413617699152 23.500000000000000
47 1 1 0.000000 36.619375829447129 53.282972281551906 23.500000000000000
48 1 1 0.000000 35.690159362381401 53.652126363185971 23.500000000000000
49 1 1 0.000000 34.741050581591459 53.966626762042054 23.500000000000000
50 1 1 0.000000 33.775260970758211 54.225409308323194 23.500000000000000
51 1 1 0.000000 32.796058456211199 54.427598363808457 23.500000000000000
52 1 1 0.000000 31.806756349300422 54.572509784735509 23.500000000000000
53 1 1 0.000000 30.810702135199456 54.659653236726562 23.500000000000000
54 1 1 0.000000 30.810702135199456 20.340346763273438 24.500000000000000
55 1 1 0.000000 31.806756349300418 20.427490215264491 24.500000000000000
56 1 1 0.000000 32.796058456211199 20.572401636191547 24.500000000000000
57 1 1 0.000000 33.775260970758204 20.774590691676806 24.500000000000000
58 1 1 0.000000 34.741050581591459 21.033373237957942 24.500000000000000
59 1 1 0.000000 35.690159362381401 21.347873636814032 24.500000000000000
60 1 1 0.000000 36.619375829447129 21.717027718448094 24.500000000000000
61 1 1 0.000000 37.525555808400640 22.139586382300848 24.500000000000000
62 1 1 0.000000 38.405633073037649 22.614119823611610 24.500000000000000
63 1 1 0.000000 39.256629720476525 23.139022371425003 24.500000000000000
64 1 1 0.000000 40.075666247438981 23.712517921673211 24.500000000000000
65 1 1 0.000000 40.859971293577658 24.332665946949930 24.500000000000000
66 1 1 0.000000 41.606891018882337 24.997368062640845 24.500000000000000
67 1 1 0.000000 42.313898083434452 25.704375127192964 24.500000000000000
68 1 1 0.000000 42.978600199125374 26.451294852497647 24.500000000000000
69 1 1 0.000000 43.598748224402087 27.235599898636323 24.500000000000000
70 1 1 0.000000 44.172243774650298 28.054636425598773 24.500000000000000
71 1 1 0.000000 44.697146322463688 28.905633073037649 24.500000000000000
72 1 1 0.000000 45.171679763774449 29.785710337674661 24.500000000000000
73 1 1 0.000000 45.594238427627204 30.691890316628168 24.500000000000000
74 1 1 0.000000 45.963392509261269 31.621106783693897 24.500000000000000
75 1 1 0.000000 46.277892908117359 32.570215564483838 24.500000000000000
76 1 1 0.000000 46.536675454398491 33.536005175317094 24.500000000000000
77 1 1 0.000000 46.738864509883754 34.515207689864106 24.500000000000000
78 1 1 0.000000 46.883775930810813 35.504509796774883 24.500000000000000
79 1 1 0.000000 46.970919382801867 36.500564010875841 24.500000000000000
80 1 1 0.000000 47.000000000000000 37.500000000000000 24.500000000000000
81 1 1 0.000000 46.970919382801867 38.499435989124152 24.500000000000000
82 1 1 0.000000 46.883775930810813 39.495490203225117 24.500000000000000
83 1 1 0.000000 46.738864509883754 40.484792310135894 24.500000000000000
84 1 1 0.000000 46.536675454398491 41.463994824682906 24.500000000000000
85 1 1 0.000000 46.277892908117359 42.429784435516162 24.500000000000000
86 1 1 0.000000 45.963392509261269 43.378893216306096 24.500000000000000
87 1 1 0.000000 45.594238427627204 44.308109683371825 24.500000000000000
88 1 1 0.000000 45.171679763774449 45.214289662325335 24.500000000000000
89 1 1 0.000000 44.697146322463688 46.094366926962344 24.500000000000000
90 1 1 0.000000 44.172243774650298 46.945363574401227 24.500000000000000
91 1 1 0.000000 43.598748224402094 47.764400101363677 24.500000000000000
92 1 1 0.000000 42.978600199125374 48.548705147502353 24.500000000000000
93 1 1 0.000000 42.313898083434452 49.295624872807032 24.500000000000000
94 1 1 0.000000 41.606891018882337 50.002631937359155 24.500000000000000
95 1 1 0.000000 40.859971293577658 50.667334053050070 24.500000000000000
96 1 1 0.000000 40.075666247438981 51.287482078326789 24.500000000000000
97 1 1 0.000000 39.256629720476532 51.860977628574993 24.500000000000000
98 1 1 0.000000 38.405633073037649 52.385880176388390 24.500000000000000
99 1 1 0.000000 37.525555808400640 52.860413617699152 24.500000000000000
100 1 1 0.000000 36.619375829447129 53.282972281551906 24.500000000000000
101 1 1 0.000000 35.690159362381401 53.652126363185971 24.500000000000000
102 1 1 0.000000 34.741050581591459 53.966626762042054 24.500000000000000
103 1 1 0.000000 33.775260970758211 54.225409308323194 24.500000000000000
104 1 1 0.000000 32.796058456211199 54.427598363808457 24.500000000000000
105 1 1 0.000000 31.806756349300422 54.572509784735509 24.500000000000000
106 1 1 0.000000 30.810702135199456 54.659653236726562 24.500000000000000
107 1 1 0.000000 30.810702135199456 20.340346763273438 25.500000000000000
108 1 1 0.000000 31.806756349300418 20.427490215264491 25.500000000000000
109 1 1 0.000000 32.796058456211199 20.572401636191547 25.500000000000000
110 1 1 0.000000 33.775260970758204 20.774590691676806 25.500000000000000
111 1 1 0.000000 34.741050581591459 21.033373237957942 25.500000000000000
112 1 1 0.000000 35.690159362381401 21.347873636814032 25.500000000000000
113 1 1 0.000000 36.619375829447129 21.717027718448094 25.500000000000000
114 1 1 0.000000 37.525555808400640 22.139586382300848 25.500000000000000
115 1 1 0.000000 38.405633073037649 22.614119823611610 25.500000000000000
116 1 1 0.000000 39.256629720476525 23.139022371425003 25.500000000000000
117 1 1 0.000000 40.075666247438981 23.712517921673211 25.500000000000000
118 1 1 0.000000 40.859971293577658 24.332665946949930 25.500000000000000
119 1 1 0.000000 41.606891018882337 24.997368062640845 25.500000000000000
120 1 1 0.000000 42.313898083434452 25.704375127192964 25.500000000000000
121 1 1 0.000000 42.978600199125374 26.451294852497647 25.500000000000000
122 1 1 0.000000 43.598748224402087 27.235599898636323 25.500000000000000
123 1 1 0.000000 44.172243774650298 28.054636425598773 25.500000000000000
124 1 1 0.000000 44.697146322463688 28.905633073037649 25.500000000000000
125 1 1 0.000000 45.171679763774449 29.785710337674661 25.500000000000000
126 1 1 0.000000 45.594238427627204 30.691890316628168 25.500000000000000
127 1 1 0.000000 45.963392509261269 31.621106783693897 25.500000000000000
128 1 1 0.000000 46.277892908117359 32.570215564483838 25.500000000000000
129 1 1 0.000000 46.536675454398491 33.536005175317094 25.500000000000000
130 1 1 0.000000 46.738864509883754 34.515207689864106 25.500000000000000
131 1 1 0.000000 46.883775930810813 35.504509796774883 25.500000000000000
132 1 1 0.000000 46.970919382801867 36.500564010875841 25.500000000000000
133 1 1 0.000000 47.000000000000000 37.500000000000000 25.500000000000000
134 1 1 0.000000 46.970919382801867 38.499435989124152 25.500000000000000
135 1 1 0.000000 46.883775930810813 39.495490203225117 25.500000000000000
136 1 1 0.000000 46.738864509883754 40.484792310135894 25.500000000000000
137 1 1 0.000000 46.536675454398491 41.463994824682906 25.500000000000000
138 1 1 0.000000 46.277892908117359 42.429784435516162 25.500000000000000
139 1 1 0.000000 45.963392509261269 43.378893216306096 25.500000000000000
140 1 1 0.000000 45.594238427627204 44.308109683371825 25.500000000000000
141 1 1 0.000000 45.171679763774449 45.214289662325335 25.500000000000000
142 1 1 0.000000 44.697146322463688 46.094366926962344 25.500000000000000
143 1 1 0.000000 44.172243774650298 46.945363574401227 25.500000000000000
144 1 1 0.000000 43.598748224402094 47.764400101363677 25.500000000000000
145 1 1 0.000000 42.978600199125374 48.548705147502353 25.500000000000000
146 1 1 0.000000 42.313898083434452 49.295624872807032 25.500000000000000
147 1 1 0.000000 41.606891018882337 50.002631937359155 25.500000000000000
148 1 1 0.000000 40.859971293577658 50.667334053050070 25.500000000000000
149 1 1 0.000000 40.075666247438981 51.287482078326789 25.500000000000000
150 1 1 0.000000 39.256629720476532 51.860977628574993 25.500000000000000
151 1 1 0.000000 38.405633073037649 52.385880176388390 25.500000000000000
152 1 1 0.000000 37.525555808400640 52.860413617699152 25.500000000000000
153 1 1 0.000000 36.619375829447129 53.282972281551906 25.500000000000000
154 1 1 0.000000 35.690159362381401 53.652126363185971 25.500000000000000
155 1 1 0.000000 34.741050581591459 53.966626762042054 25.500000000000000
156 1 1 0.000000 33.775260970758211 54.225409308323194 25.500000000000000
157 1 1 0.000000 32.796058456211199 54.427598363808457 25.500000000000000
158 1 1 0.000000 31.806756349300422 54.572509784735509 25.500000000000000
159 1 1 0.000000 30.810702135199456 54.659653236726562 25.500000000000000
160 1 1 0.000000 30.810702135199456 20.340346763273438 26.500000000000000
161 1 1 0.000000 31.806756349300418 20.427490215264491 26.500000000000000
162 1 1 0.000000 32.796058456211199 20.572401636191547 26.500000000000000
163 1 1 0.000000 33.775260970758204 20.774590691676806 26.500000000000000
164 1 1 0.000000 34.741050581591459 21.033373237957942 26.500000000000000
165 1 1 0.000000 35.690159362381401 21.347873636814032 26.500000000000000
166 1 1 0.000000 36.619375829447129 21.717027718448094 26.500000000000000
167 1 1 0.000000 37.525555808400640 22.139586382300848 26.500000000000000
168 1 1 0.000000 38.405633073037649 22.614119823611610 26.500000000000000
169 1 1 0.000000 39.256629720476525 23.139022371425003 26.500000000000000
170 1 1 0.000000 40.075666247438981 23.712517921673211 26.500000000000000
171 1 1 0.000000 40.859971293577658 24.332665946949930 26.500000000000000
172 1 1 0.000000 41.606891018882337 24.997368062640845 26.500000000000000
173 1 1 0.000000 42.313898083434452 25.704375127192964 26.500000000000000
174 1 1 0.000000 42.978600199125374 26.451294852497647 26.500000000000000
175 1 1 0.000000 43.598748224402087 27.235599898636323 26.500000000000000
176 1 1 0.000000 44.172243774650298 28.054636425598773 26.500000000000000
177 1 1 0.000000 44.697146322463688 28.905633073037649 26.500000000000000
178 1 1 0.000000 45.171679763774449 29.785710337674661 26.500000000000000
179 1 1 0.000000 45.594238427627204 30.691890316628168 26.500000000000000
180 1 1 0.000000 45.963392509261269 31.621106783693897 26.500000000000000
181 1 1 0.000000 46.277892908117359 32.570215564483838 26.500000000000000
182 1 1 0.000000 46.536675454398491 33.536005175317094 26.500000000000000
183 1 1 0.000000 46.738864509883754 34.515207689864106 26.500000000000000
184 1 1 0.000000 46.883775930810813 35.504509796774883 26.500000000000000
185 1 1 0.000000 46.970919382801867 36.500564010875841 26.500000000000000
186 1 1 0.000000 47.000000000000000 37.500000000000000 26.500000000000000
187 1 1 0.000000 46.970919382801867 38.499435989124152 26.500000000000000
188 1 1 0.000000 46.883775930810813 39.495490203225117 26.500000000000000
189 1 1 0.000000 46.738864509883754 40.484792310135894 26.500000000000000
190 1 1 0.000000 46.536675454398491 41.463994824682906 26.500000000000000
191 1 1 0.000000 46.277892908117359 42.429784435516162 26.500000000000000
192 1 1 0.000000 45.963392509261269 43.378893216306096 26.500000000000000
193 1 1 0.000000 45.594238427627204 44.308109683371825 26.500000000000000
194 1 1 0.000000 45.171679763774449 45.214289662325335 26.500000000000000
195 1 1 0.000000 44.697146322463688 46.094366926962344 26.500000000000000
196 1 1 0.000000 44.172243774650298 46.945363574401227 26.500000000000000
197 1 1 0.000000 43.598748224402094 47.764400101363677 26.500000000000000
198 1 1 0.000000 42.978600199125374 48.548705147502353 26.500000000000000
199 1 1 0.000000 42.313898083434452 49.295624872807032 26.500000000000000
200 1 1 0.000000 41.606891018882337 50.002631937359155 26.500000000000000
201 1 1 0.000000 40.859971293577658 50.667334053050070 26.500000000000000
202 1 1 0.000000 40.075666247438981 51.287482078326789 26.500000000000000
203 1 1 0.000000 39.256629720476532 51.860977628574993 26.500000000000000
204 1 1 0.000000 38.405633073037649 52.385880176388390 26.500000000000000
205 1 1 0.000000 37.525555808400640 52.860413617699152 26.500000000000000
206 1 1 0.000000 36.619375829447129 53.282972281551906 26.500000000000000
207 1 1 0.000000 35.690159362381401 53.652126363185971 26.500000000000000
208 1 1 0.000000 34.741050581591459 53.966626762042054 26.500000000000000
209 1 1 0.000000 33.775260970758211 54.225409308323194 26.500000000000000
210 1 1 0.000000 32.796058456211199 54.427598363808457 26.500000000000000
211 1 1 0.000000 31.806756349300422 54.572509784735509 26.500000000000000
212 1 1 0.000000 30.810702135199456 54.659653236726562 26.500000000000000
213 1 1 0.000000 30.810702135199456 20.340346763273438 27.500000000000000
214 1 1 0.000000 31.806756349300418 20.427490215264491 27.500000000000000
215 1 1 0.000000 32.796058456211199 20.572401636191547 27.500000000000000
216 1 1 0.000000 33.775260970758204 20.774590691676806 27.500000000000000
217 1 1 0.000000 34.741050581591459 21.033373237957942 27.500000000000000
218 1 1 0.000000 35.690159362381401 21.347873636814032 27.500000000000000
219 1 1 0.000000 36.619375829447129 21.717027718448094 27.500000000000000
220 1 1 0.000000 37.525555808400640 22.139586382300848 27.500000000000000
221 1 1 0.000000 38.405633073037649 22.614119823611610 27.500000000000000
222 1 1 0.000000 39.256629720476525 23.139022371425003 27.500000000000000
223 1 1 0.000000 40.075666247438981 23.712517921673211 27.500000000000000
224 1 1 0.000000 40.859971293577658 24.332665946949930 27.500000000000000
225 1 1 0.000000 41.606891018882337 24.997368062640845 27.500000000000000
226 1 1 0.000000 42.313898083434452 25.704375127192964 27.500000000000000
227 1 1 0.000000 42.978600199125374 26.451294852497647 27.500000000000000
228 1 1 0.000000 43.598748224402087 27.235599898636323 27.500000000000000
229 1 1 0.000000 44.172243774650298 28.054636425598773 27.500000000000000
230 1 1 0.000000 44.697146322463688 28.905633073037649 27.500000000000000
231 1 1 0.000000 45.171679763774449 29.785710337674661 27.500000000000000
232 1 1 0.000000 45.594238427627204 30.691890316628168 27.500000000000000
233 1 1 0.000000 45.963392509261269 31.621106783693897 27.500000000000000
234 1 1 0.000000 46.277892908117359 32.570215564483838 27.500000000000000
235 1 1 0.000000 46.536675454398491 33.536005175317094 27.500000000000000
236 1 1 0.000000 46.738864509883754 34.515207689864106 27.500000000000000
237 1 1 0.000000 46.883775930810813 35.504509796774883 27.500000000000000
238 1 1 0.000000 46.970919382801867 36.500564010875841 27.500000000000000
239 1 1 0.000000 47.000000000000000 37.500000000000000 27.500000000000000
240 1 1 0.000000 46.970919382801867 38.499435989124152 27.500000000000000
241 1 1 0.000000 46.883775930810813 39.495490203225117 27.500000000000000
242 1 1 0.000000 46.738864509883754 40.484792310135894 27.500000000000000
243 1 1 0.000000 46.536675454398491 41.463994824682906 27.500000000000000
244 1 1 0.000000 46.277892908117359 42.429784435516162 27.500000000000000
245 1 1 0.000000 45.963392509261269 43.378893216306096 27.500000000000000
246 1 1 0.000000 45.594238427627204 44.308109683371825 27.500000000000000
247 1 1 0.000000 45.171679763774449 45.214289662325335 27.500000000000000
248 1 1 0.000000 44.697146322463688 46.094366926962344 27.500000000000000
249 1 1 0.000000 44.172243774650298 46.945363574401227 27.500000000000000
250 1 1 0.000000 43.598748224402094 47.764400101363677 27.500000000000000
251 1 1 0.000000 42.978600199125374 48.548705147502353 27.500000000000000
252 1 1 0.000000 42.313898083434452 49.295624872807032 27.500000000000000
253 1 1 0.000000 41.606891018882337 50.002631937359155 27.500000000000000
254 1 1 0.000000 40.859971293577658 50.667334053050070 27.500000000000000
255 1 1 0.000000 40.075666247438981 51.287482078326789 27.500000000000000
256 1 1 0.000000 39.256629720476532 51.860977628574993 27.500000000000000
257 1 1 0.000000 38.405633073037649 52.385880176388390 27.500000000000000
258 1 1 0.000000 37.525555808400640 52.860413617699152 27.500000000000000
259 1 1 0.000000 36.619375829447129 53.282972281551906 27.500000000000000
260 1 1 0.000000 35.690159362381401 53.652126363185971 27.500000000000000
261 1 1 0.000000 34.741050581591459 53.966626762042054 27.500000000000000
262 1 1 0.000000 33.775260970758211 54.225409308323194 27.500000000000000
263 1 1 0.000000 32.796058456211199 54.427598363808457 27.500000000000000
264 1 1 0.000000 31.806756349300422 54.572509784735509 27.500000000000000
265 1 1 0.000000 30.810702135199456 54.659653236726562 27.500000000000000
266 1 1 0.000000 30.810702135199456 20.340346763273438 28.500000000000000
267 1 1 0.000000 31.806756349300418 20.427490215264491 28.500000000000000
268 1 1 0.000000 32.796058456211199 20.572401636191547 28.500000000000000
269 1 1 0.000000 33.775260970758204 20.774590691676806 28.500000000000000
270 1 1 0.000000 34.741050581591459 21.033373237957942 28.500000000000000
271 1 1 0.000000 35.690159362381401 21.347873636814032 28.500000000000000
272 1 2 0.000000 36.018498699974046 20.445768720859558 28.500000000000000
273 1 2 0.000000 36.346838037566684 19.543663804905091 28.500000000000000
274 1 2 0.000000 36.675177375159329 18.641558888950616 28.500000000000000
275 1 2 0.000000 37.003516712751967 17.739453972996142 28.500000000000000
276 1 2 0.000000 37.331856050344612 16.837349057041671 28.500000000000000
277 1 2 0.000000 37.660195387937250 15.935244141087196 28.500000000000000
278 1 2 0.000000 37.988534725529895 15.033139225132729 28.500000000000000
279 1 2 0.000000 38.316874063122540 14.131034309178254 28.500000000000000
280 1 2 0.000000 38.645213400715178 13.228929393223783 28.500000000000000
281 1 2 0.000000 38.973552738307816 12.326824477269312 28.500000000000000
282 1 2 0.000000 39.301892075900462 11.424719561314841 28.500000000000000
283 1 2 0.000000 39.630231413493107 10.522614645360367 28.500000000000000
284 1 2 0.000000 39.958570751085745 9.620509729405892 28.500000000000000
285 1 2 0.000000 40.286910088678390 8.718404813451421 28.500000000000000
286 1 2 0.000000 40.615249426271028 7.816299897496950 28.500000000000000
287 1 2 0.000000 40.943588763863673 6.914194981542476 28.500000000000000
288 1 2 0.000000 41.271928101456311 6.012090065588009 28.500000000000000
289 1 2 0.000000 41.600267439048956 5.109985149633530 28.500000000000000
290 1 2 0.000000 41.928606776641601 4.207880233679063 28.500000000000000
291 1 4 0.000000 42.256946114234239 3.305775317724589 28.500000000000000
292 1 2 0.000000 42.585285451826884 2.403670401770114 28.500000000000000
293 1 2 0.000000 42.913624789419522 1.501565485815654 28.500000000000000
294 1 2 0.000000 43.241964127012167 0.599460569861172 28.500000000000000
295 1 2 0.000000 43.570303464604805 -0.302644346093295 28.500000000000000
296 1 1 0.000000 36.619375829447129 21.717027718448094 28.500000000000000
297 1 1 0.000000 37.525555808400640 22.139586382300848 28.500000000000000
298 1 1 0.000000 38.405633073037649 22.614119823611610 28.500000000000000
299 1 1 0.000000 39.256629720476525 23.139022371425003 28.500000000000000
300 1 1 0.000000 40.075666247438981 23.712517921673211 28.500000000000000
301 1 1 0.000000 40.859971293577658 24.332665946949930 28.500000000000000
302 2 2 0.000000 41.477047398876735 23.597263281555712 28.500000000000000
303 2 2 0.000000 42.094123504175812 22.861860616161493 28.500000000000000
304 2 2 0.000000 42.711199609474889 22.126457950767275 28.500000000000000
305 2 2 0.000000 43.328275714773966 21.391055285373053 28.500000000000000
306 2 2 0.000000 43.945351820073043 20.655652619978834 28.500000000000000
307 2 2 0.000000 44.562427925372120 19.920249954584616 28.500000000000000
308 2 2 0.000000 45.179504030671197 19.184847289190397 28.500000000000000
309 2 2 0.000000 45.796580135970274 18.449444623796179 28.500000000000000
310 2 2 0.000000 46.413656241269351 17.714041958401960 28.500000000000000
311 2 2 0.000000 47.030732346568428 16.978639293007742 28.500000000000000
312 2 2 0.000000 47.647808451867505 16.243236627613523 28.500000000000000
313 2 2 0.000000 48.264884557166582 15.507833962219301 28.500000000000000
314 2 2 0.000000 48.881960662465666 14.772431296825083 28.500000000000000
315 2 2 0.000000 49.499036767764743 14.037028631430864 28.500000000000000
316 2 2 0.000000 50.116112873063820 13.301625966036646 28.500000000000000
317 2 2 0.000000 50.733188978362904 12.566223300642424 28.500000000000000
318 2 2 0.000000 51.350265083661974 11.830820635248209 28.500000000000000
319 2 2 0.000000 51.967341188961058 11.095417969853987 28.500000000000000
320 2 2 0.000000 52.584417294260128 10.360015304459772 28.500000000000000
321 2 4 0.000000 53.201493399559212 9.624612639065553 28.500000000000000
322 2 2 0.000000 53.818569504858289 8.889209973671331 28.500000000000000
323 2 2 0.000000 54.435645610157358 8.153807308277120 28.500000000000000
324 2 2 0.000000 55.052721715456443 7.418404642882894 28.500000000000000
325 2 2 0.000000 55.669797820755520 6.683001977488679 28.500000000000000
326 1 1 0.000000 41.606891018882337 24.997368062640845 28.500000000000000
327 1 1 0.000000 42.313898083434452 25.704375127192964 28.500000000000000
328 1 1 0.000000 42.978600199125374 26.451294852497647 28.500000000000000
329 1 1 0.000000 43.598748224402087 27.235599898636323 28.500000000000000
330 1 1 0.000000 44.172243774650298 28.054636425598773 28.500000000000000
331 1 1 0.000000 44.697146322463688 28.905633073037649 28.500000000000000
332 3 2 0.000000 45.528530710096746 28.425633073037648 28.500000000000000
333 3 2 0.000000 46.359915097729811 27.945633073037648 28.500000000000000
334 3 2 0.000000 47.191299485362869 27.465633073037651 28.500000000000000
335 3 2 0.000000 48.022683872995927 26.985633073037647 28.500000000000000
336 3 2 0.000000 48.854068260628992 26.505633073037650 28.500000000000000
337 3 2 0.000000 49.685452648262057 26.025633073037646 28.500000000000000
338 3 2 0.000000 50.516837035895115 25.545633073037649 28.500000000000000
339 3 2 0.000000 51.348221423528173 25.065633073037645 28.500000000000000
340 3 2 0.000000 52.179605811161238 24.585633073037648 28.500000000000000
341 3 2 0.000000 53.010990198794296 24.105633073037648 28.500000000000000
342 3 2 0.000000 53.842374586427354 23.625633073037648 28.500000000000000
343 3 2 0.000000 54.673758974060419 23.145633073037647 28.500000000000000
344 3 2 0.000000 55.505143361693484 22.665633073037647 28.500000000000000
345 3 2 0.000000 56.336527749326542 22.185633073037646 28.500000000000000
346 3 2 0.000000 57.167912136959600 21.705633073037646 28.500000000000000
347 3 2 0.000000 57.999296524592665 21.225633073037645 28.500000000000000
348 3 2 0.000000 58.830680912225723 20.745633073037649 28.500000000000000
349 3 2 0.000000 59.662065299858796 20.265633073037645 28.500000000000000
350 3 2 0.000000 60.493449687491847 19.785633073037648 28.500000000000000
351 3 4 0.000000 61.324834075124912 19.305633073037647 28.500000000000000
352 3 2 0.000000 62.156218462757977 18.825633073037647 28.500000000000000
353 3 2 0.000000 62.987602850391028 18.345633073037650 28.500000000000000
354 3 2 0.000000 63.818987238024093 17.865633073037646 28.500000000000000
355 3 2 0.000000 64.650371625657144 17.385633073037649 28.500000000000000
356 1 1 0.000000 45.171679763774449 29.785710337674661 28.500000000000000
357 1 1 0.000000 45.594238427627204 30.691890316628168 28.500000000000000
358 1 1 0.000000 45.963392509261269 31.621106783693897 28.500000000000000
359 1 1 0.000000 46.277892908117359 32.570215564483838 28.500000000000000
360 1 1 0.000000 46.536675454398491 33.536005175317094 28.500000000000000
361 1 1 0.000000 46.738864509883754 34.515207689864106 28.500000000000000
362 4 2 0.000000 47.684279952775476 34.348505439303850 28.500000000000000
363 4 2 0.000000 48.629695395667191 34.181803188743594 28.500000000000000
364 4 2 0.000000 49.575110838558913 34.015100938183345 28.500000000000000
365 4 2 0.000000 50.520526281450628 33.848398687623089 28.500000000000000
366 4 2 0.000000 51.465941724342358 33.681696437062840 28.500000000000000
367 4 2 0.000000 52.411357167234073 33.514994186502584 28.500000000000000
368 4 2 0.000000 53.356772610125788 33.348291935942328 28.500000000000000
369 4 2 0.000000 54.302188053017517 33.181589685382079 28.500000000000000
370 4 2 0.000000 55.247603495909232 33.014887434821823 28.500000000000000
371 4 2 0.000000 56.193018938800947 32.848185184261567 28.500000000000000
372 4 2 0.000000 57.138434381692669 32.681482933701318 28.500000000000000
373 4 2 0.000000 58.083849824584391 32.514780683141062 28.500000000000000
374 4 2 0.000000 59.029265267476106 32.348078432580813 28.500000000000000
375 4 2 0.000000 59.974680710367835 32.181376182020557 28.500000000000000
376 4 2 0.000000 60.920096153259550 32.014673931460308 28.500000000000000
377 4 2 0.000000 61.865511596151279 31.847971680900052 28.500000000000000
378 4 2 0.000000 62.810927039042980 31.681269430339800 28.500000000000000
379 4 2 0.000000 63.756342481934709 31.514567179779544 28.500000000000000
380 4 2 0.000000 64.701757924826424 31.347864929219291 28.500000000000000
381 4 4 0.000000 65.647173367718153 31.181162678659039 28.500000000000000
382 4 2 0.000000 66.592588810609868 31.014460428098786 28.500000000000000
383 4 2 0.000000 67.538004253501583 30.847758177538534 28.500000000000000
384 4 2 0.000000 68.483419696393312 30.681055926978278 28.500000000000000
385 4 2 0.000000 69.428835139285027 30.514353676418025 28.500000000000000
386 1 1 0.000000 46.883775930810813 35.504509796774883 28.500000000000000
387 1 1 0.000000 46.970919382801867 36.500564010875841 28.500000000000000
388 1 1 0.000000 47.000000000000000 37.500000000000000 28.500000000000000
389 1 1 0.000000 46.970919382801867 38.499435989124152 28.500000000000000
390 1 1 0.000000 46.883775930810813 39.495490203225117 28.500000000000000
391 1 1 0.000000 46.738864509883754 40.484792310135894 28.500000000000000
392 5 2 0.000000 47.684279952775476 40.651494560696150 28.500000000000000
393 5 2 0.000000 48.629695395667191 40.818196811256399 28.500000000000000
394 5 2 0.000000 49.575110838558913 40.984899061816655 28.500000000000000
395 5 2 0.000000 50.520526281450628 41.151601312376911 28.500000000000000
396 5 2 0.000000 51.465941724342358 41.318303562937160 28.500000000000000
397 5 2 0.000000 52.411357167234073 41.485005813497416 28.500000000000000
398 5 2 0.000000 53.356772610125788 41.651708064057665 28.500000000000000
399 5 2 0.000000 54.302188053017517 41.818410314617921 28.500000000000000
400 5 2 0.000000 55.247603495909232 41.985112565178170 28.500000000000000
401 5 2 0.000000 56.193018938800947 42.151814815738426 28.500000000000000
402 5 2 0.000000 57.138434381692669 42.318517066298682 28.500000000000000
403 5 2 0.000000 58.083849824584391 42.485219316858931 28.500000000000000
404 5 2 0.000000 59.029265267476106 42.651921567419187 28.500000000000000