LAMMPS data file

17000 atoms
4 atom types
7176 bonds
1 bond types
6952 angles
1 angle types

0.0 70.000000 xlo xhi
0.0 70.000000 ylo yhi
0.0 30.002000 zlo zhi

Masses

1 1
2 1
3 1
4 1

Atoms

1 1 1 0.000000 0.000000000000000 1.000000000000000 0.001000000000000
2 1 1 0.000000 0.000000000000000 2.000000000000000 0.001000000000000
3 1 1 0.000000 0.000000000000000 3.000000000000000 0.001000000000000
4 1 1 0.000000 0.000000000000000 4.000000000000000 0.001000000000000
5 1 1 0.000000 0.000000000000000 5.000000000000000 0.001000000000000
6 1 1 0.000000 0.000000000000000 6.000000000000000 0.001000000000000
7 1 1 0.000000 0.000000000000000 8.000000000000000 0.001000000000000
8 1 1 0.000000 0.000000000000000 9.000000000000000 0.001000000000000
9 1 1 0.000000 0.000000000000000 10.000000000000000 0.001000000000000
10 1 1 0.000000 0.000000000000000 11.000000000000000 0.001000000000000
11 1 1 0.000000 0.000000000000000 12.000000000000000 0.001000000000000
12 1 1 0.000000 0.000000000000000 13.000000000000000 0.001000000000000
13 1 1 0.000000 0.000000000000000 15.000000000000000 0.001000000000000
14 1 1 0.000000 0.000000000000000 16.000000000000000 0.001000000000000
15 1 1 0.000000 0.000000000000000 17.000000000000000 0.001000000000000
16 1 1 0.000000 0.000000000000000 18.000000000000000 0.001000000000000
17 1 1 0.000000 0.000000000000000 19.000000000000000 0.001000000000000
18 1 1 0.000000 0.000000000000000 20.000000000000000 0.001000000000000
19 1 1 0.000000 0.000000000000000 22.000000000000000 0.001000000000000
20 1 1 0.000000 0.000000000000000 23.000000000000000 0.001000000000000
21 1 1 0.000000 0.000000000000000 24.000000000000000 0.001000000000000
22 1 1 0.000000 0.000000000000000 25.000000000000000 0.001000000000000
23 1 1 0.000000 0.000000000000000 26.000000000000000 0.001000000000000
24 1 1 0.000000 0.000000000000000 27.000000000000000 0.001000000000000
25 1 1 0.000000 0.000000000000000 29.000000000000000 0.001000000000000
26 1 1 0.000000 0.000000000000000 30.000000000000000 0.001000000000000
27 1 1 0.000000 0.000000000000000 31.000000000000000 0.001000000000000
28 1 1 0.000000 0.000000000000000 32.000000000000000 0.001000000000000
29 1 1 0.000000 0.000000000000000 33.000000000000000 0.001000000000000
30 1 1 0.000000 0.000000000000000 34.000000000000000 0.001000000000000
31 1 1 0.000000 0.000000000000000 36.000000000000000 0.001000000000000
32 1 1 0.000000 0.000000000000000 37.000000000000000 0.001000000000000
33 1 1 0.000000 0.000000000000000 38.000000000000000 0.001000000000000
34 1 1 0.000000 0.000000000000000 39.000000000000000 0.001000000000000
35 1 1 0.000000 0.000000000000000 40.000000000000000 0.001000000000000
36 1 1 0.000000 0.000000000000000 41.000000000000000 0.001000000000000
37 1 1 0.000000 0.000000000000000 43.000000000000000 0.001000000000000
38 1 1 0.000000 0.000000000000000 44.000000000000000 0.001000000000000
39 1 1 0.000000 0.000000000000000 45.000000000000000 0.001000000000000
40 1 1 0.000000 0.000000000000000 46.000000000000000 0.001000000000000
41 1 1 0.000000 0.000000000000000 47.000000000000000 0.001000000000000
42 1 1 0.000000 0.000000000000000 48.000000000000000 0.001000000000000
43 1 1 0.000000 0.000000000000000 50.000000000000000 0.001000000000000
44 1 1 0.000000 0.000000000000000 51.000000000000000 0.001000000000000
45 1 1 0.000000 0.000000000000000 52.000000000000000 0.001000000000000
46 1 1 0.000000 0.000000000000000 53.000000000000000 0.001000000000000
47 1 1 0.000000 0.000000000000000 54.000000000000000 0.001000000000000
48 1 1 0.000000 0.000000000000000 55.000000000000000 0.001000000000000
49 1 1 0.000000 0.000000000000000 57.000000000000000 0.001000000000000
50 1 1 0.000000 0.000000000000000 58.000000000000000 0.001000000000000
51 1 1 0.000000 0.000000000000000 59.000000000000000 0.001000000000000
52 1 1 0.000000 0.000000000000000 60.000000000000000 0.001000000000000
53 1 1 0.000000 0.000000000000000 61.000000000000000 0.001000000000000
54 1 1 0.000000 0.000000000000000 62.000000000000000 0.001000000000000
55 1 1 0.000000 0.000000000000000 64.000000000000000 0.001000000000000
56 1 1 0.000000 0.000000000000000 65.000000000000000 0.001000000000000
57 1 1 0.000000 0.000000000000000 66.000000000000000 0.001000000000000
58 1 1 0.000000 0.000000000000000 67.000000000000000 0.001000000000000
59 1 1 0.000000 0.000000000000000 68.000000000000000 0.001000000000000
60 1 1 0.000000 0.000000000000000 69.000000000000000 0.001000000000000
61 1 1 0.000000 1.000000000000000 0.000000000000000 0.001000000000000
62 1 1 0.000000 1.000000000000000 1.000000000000000 0.001000000000000
63 1 1 0.000000 1.000000000000000 2.000000000000000 0.001000000000000
64 1 1 0.000000 1.000000000000000 3.000000000000000 0.001000000000000
65 1 1 0.000000 1.000000000000000 4.000000000000000 0.001000000000000
66 1 1 0.000000 1.000000000000000 5.000000000000000 0.001000000000000
67 1 1 0.000000 1.000000000000000 6.000000000000000 0.001000000000000
68 1 1 0.000000 1.000000000000000 7.000000000000000 0.001000000000000
69 1 1 0.000000 1.000000000000000 8.000000000000000 0.001000000000000
70 1 1 0.000000 1.000000000000000 9.000000000000000 0.001000000000000
71 1 1 0.000000 1.000000000000000 10.000000000000000 0.001000000000000
72 1 1 0.000000 1.000000000000000 11.000000000000000 0.001000000000000
73 1 1 0.000000 1.000000000000000 12.000000000000000 0.001000000000000
74 1 1 0.000000 1.000000000000000 13.000000000000000 0.001000000000000
75 1 1 0.000000 1.000000000000000 14.000000000000000 0.001000000000000
76 1 1 0.000000 1.000000000000000 15.000000000000000 0.001000000000000
77 1 1 0.000000 1.000000000000000 16.000000000000000 0.001000000000000
78 1 1 0.000000 1.000000000000000 17.000000000000000 0.001000000000000
79 1 1 0.000000 1.000000000000000 18.000000000000000 0.001000000000000
80 1 1 0.000000 1.000000000000000 19.000000000000000 0.001000000000000
81 1 1 0.000000 1.000000000000000 20.000000000000000 0.001000000000000
82 1 1 0.000000 1.000000000000000 21.000000000000000 0.001000000000000
83 1 1 0.000000 1.000000000000000 22.000000000000000 0.001000000000000
84 1 1 0.000000 1.000000000000000 23.000000000000000 0.001000000000000
85 1 1 0.000000 1.000000000000000 24.000000000000000 0.001000000000000
86 1 1 0.000000 1.000000000000000 25.000000000000000 0.001000000000000
87 1 1 0.000000 1.000000000000000 26.000000000000000 0.001000000000000
88 1 1 0.000000 1.000000000000000 27.000000000000000 0.001000000000000
89 1 1 0.000000 1.000000000000000 28.000000000000000 0.001000000000000
90 1 1 0.000000 1.000000000000000 29.000000000000000 0.001000000000000
91 1 1 0.000000 1.000000000000000 30.000000000000000 0.001000000000000
92 1 1 0.000000 1.000000000000000 31.000000000000000 0.001000000000000
93 1 1 0.000000 1.000000000000000 32.000000000000000 0.001000000000000
94 1 1 0.000000 1.000000000000000 33.000000000000000 0.001000000000000
95 1 1 0.000000 1.000000000000000 34.000000000000000 0.001000000000000
96 1 1 0.000000 1.000000000000000 35.000000000000000 0.001000000000000
97 1 1 0.000000 1.000000000000000 36.000000000000000 0.001000000000000
98 1 1 0.000000 1.000000000000000 37.000000000000000 0.001000000000000
99 1 1 0.000000 1.000000000000000 38.000000000000000 0.001000000000000
100 1 1 0.000000 1.000000000000000 39.000000000000000 0.001000000000000
101 1 1 0.000000 1.000000000000000 40.000000000000000 0.001000000000000
102 1 1 0.000000 1.000000000000000 41.000000000000000 0.001000000000000
103 1 1 0.000000 1.000000000000000 42.000000000000000 0.001000000000000
104 1 1 0.000000 1.000000000000000 43.000000000000000 0.001000000000000
105 1 1 0.000000 1.000000000000000 44.000000000000000 0.001000000000000
106 1 1 0.000000 1.000000000000000 45.000000000000000 0.001000000000000
107 1 1 0.000000 1.000000000000000 46.000000000000000 0.001000000000000
108 1 1 0.000000 1.000000000000000 47.000000000000000 0.001000000000000
109 1 1 0.000000 1.000000000000000 48.000000000000000 0.001000000000000
110 1 1 0.000000 1.000000000000000 49.000000000000000 0.001000000000000
111 1 1 0.000000 1.000000000000000 50.000000000000000 0.001000000000000
112 1 1 0.000000 1.000000000000000 51.000000000000000 0.001000000000000
113 1 1 0.000000 1.000000000000000 52.000000000000000 0.001000000000000
114 1 1 0.000000 1.000000000000000 53.000000000000000 0.001000000000000
115 1 1 0.000000 1.000000000000000 54.000000000000000 0.001000000000000
116 1 1 0.000000 1.000000000000000 55.000000000000000 0.001000000000000
117 1 1 0.000000 1.000000000000000 56.000000000000000 0.001000000000000
118 1 1 0.000000 1.000000000000000 57.000000000000000 0.001000000000000
119 1 1 0.000000 1.000000000000000 58.000000000000000 0.001000000000000
120 1 1 0.000000 1.000000000000000 59.000000000000000 0.001000000000000
121 1 1 0.000000 1.000000000000000 60.000000000000000 0.001000000000000
122 1 1 0.000000 1.000000000000000 61.000000000000000 0.001000000000000
123 1 1 0.000000 1.000000000000000 62.000000000000000 0.001000000000000
124 1 1 0.000000 1.000000000000000 63.000000000000000 0.001000000000000
125 1 1 0.000000 1.000000000000000 64.000000000000000 0.001000000000000
126 1 1 0.000000 1.000000000000000 65.000000000000000 0.001000000000000
127 1 1 0.000000 1.000000000000000 66.000000000000000 0.001000000000000
128 1 1 0.000000 1.000000000000000 67.000000000000000 0.001000000000000
129 1 1 0.000000 1.000000000000000 68.000000000000000 0.001000000000000
130 1 1 0.000000 1.000000000000000 69.000000000000000 0.001000000000000
131 1 1 0.000000 2.000000000000000 0.000000000000000 0.001000000000000
132 1 1 0.000000 2.000000000000000 1.000000000000000 0.001000000000000
133 1 1 0.000000 2.000000000000000 2.000000000000000 0.001000000000000
134 1 1 0.000000 2.000000000000000 3.000000000000000 0.001000000000000
135 1 1 0.000000 2.000000000000000 4.000000000000000 0.001000000000000
136 1 1 0.000000 2.000000000000000 5.000000000000000 0.001000000000000
137 1 1 0.000000 2.000000000000000 6.000000000000000 0.001000000000000
138 1 1 0.000000 2.000000000000000 7.000000000000000 0.001000000000000
139 1 1 0.000000 2.000000000000000 8.000000000000000 0.001000000000000
140 1 1 0.000000 2.000000000000000 9.000000000000000 0.001000000000000
141 1 1 0.000000 2.000000000000000 10.000000000000000 0.001000000000000
142 1 1 0.000000 2.000000000000000 11.000000000000000 0.001000000000000
143 1 1 0.000000 2.000000000000000 12.000000000000000 0.001000000000000
144 1 1 0.000000 2.000000000000000 13.000000000000000 0.001000000000000
145 1 1 0.000000 2.000000000000000 14.000000000000000 0.001000000000000
146 1 1 0.000000 2.000000000000000 15.000000000000000 0.001000000000000
147 1 1 0.000000 2.000000000000000 16.000000000000000 0.001000000000000
148 1 1 0.000000 2.000000000000000 17.000000000000000 0.001000000000000
149 1 1 0.000000 2.000000000000000 18.000000000000000 0.001000000000000
150 1 1 0.000000 2.000000000000000 19.000000000000000 0.001000000000000
151 1 1 0.000000 2.000000000000000 20.000000000000000 0.001000000000000
152 1 1 0.000000 2.000000000000000 21.000000000000000 0.001000000000000
153 1 1 0.000000 2.000000000000000 22.000000000000000 0.001000000000000
154 1 1 0.000000 2.000000000000000 23.000000000000000 0.001000000000000
155 1 1 0.000000 2.000000000000000 24.000000000000000 0.001000000000000
156 1 1 0.000000 2.000000000000000 25.000000000000000 0.001000000000000
157 1 1 0.000000 2.000000000000000 26.000000000000000 0.001000000000000
158 1 1 0.000000 2.000000000000000 27.000000000000000 0.001000000000000
159 1 1 0.000000 2.000000000000000 28.000000000000000 0.001000000000000
160 1 1 0.000000 2.000000000000000 29.000000000000000 0.001000000000000
161 1 1 0.000000 2.000000000000000 30.000000000000000 0.001000000000000
162 1 1 0.000000 2.000000000000000 31.000000000000000 0.001000000000000
163 1 1 0.000000 2.000000000000000 32.000000000000000 0.001000000000000
164 1 1 0.000000 2.000000000000000 33.000000000000000 0.001000000000000
165 1 1 0.000000 2.000000000000000 34.000000000000000 0.001000000000000
166 1 1 0.000000 2.000000000000000 35.000000000000000 0.001000000000000
167 1 1 0.000000 2.000000000000000 36.000000000000000 0.001000000000000
168 1 1 0.000000 2.000000000000000 37.000000000000000 0.001000000000000
169 1 1 0.000000 2.000000000000000 38.000000000000000 0.001000000000000
170 1 1 0.000000 2.000000000000000 39.000000000000000 0.001000000000000
171 1 1 0.000000 2.000000000000000 40.000000000000000 0.001000000000000
172 1 1 0.000000 2.000000000000000 41.000000000000000 0.001000000000000
173 1 1 0.000000 2.000000000000000 42.000000000000000 0.001000000000000
174 1 1 0.000000 2.000000000000000 43.000000000000000 0.001000000000000
175 1 1 0.000000 2.000000000000000 44.000000000000000 0.001000000000000
176 1 1 0.000000 2.000000000000000 45.000000000000000 0.001000000000000
177 1 1 0.000000 2.000000000000000 46.000000000000000 0.001000000000000
178 1 1 0.000000 2.000000000000000 47.000000000000000 0.001000000000000
179 1 1 0.000000 2.000000000000000 48.000000000000000 0.001000000000000
180 1 1 0.000000 2.000000000000000 49.000000000000000 0.001000000000000
181 1 1 0.000000 2.000000000000000 50.000000000000000 0.001000000000000
182 1 1 0.000000 2.000000000000000 51.000000000000000 0.001000000000000
183 1 1 0.000000 2.000000000000000 52.000000000000000 0.001000000000000
184 1 1 0.000000 2.000000000000000 53.000000000000000 0.001000000000000
185 1 1 0.000000 2.000000000000000 54.000000000000000 0.001000000000000
186 1 1 0.000000 2.000000000000000 55.000000000000000 0.001000000000000
187 1 1 0.000000 2.000000000000000 56.000000000000000 0.001000000000000
188 1 1 0.000000 2.000000000000000 57.000000000000000 0.001000000000000
189 1 1 0.000000 2.000000000000000 58.000000000000000 0.001000000000000
190 1 1 0.000000 2.000000000000000 59.000000000000000 0.001000000000000
191 1 1 0.000000 2.000000000000000 60.000000000000000 0.001000000000000
192 1 1 0.000000 2.000000000000000 61.000000000000000 0.001000000000000
193 1 1 0.000000 2.000000000000000 62.000000000000000 0.001000000000000
194 1 1 0.000000 2.000000000000000 63.000000000000000 0.001000000000000
195 1 1 0.000000 2.000000000000000 64.000000000000000 0.001000000000000
196 1 1 0.000000 2.000000000000000 65.000000000000000 0.001000000000000
197 1 1 0.000000 2.000000000000000 66.000000000000000 0.001000000000000
198 1 1 0.000000 2.000000000000000 67.000000000000000 0.001000000000000
199 1 1 0.000000 2.000000000000000 68.000000000000000 0.001000000000000
200 1 1 0.000000 2.000000000000000 69.000000000000000 0.001000000000000
201 1 1 0.000000 3.000000000000000 0.000000000000000 0.001000000000000
202 1 1 0.000000 3.000000000000000 1.000000000000000 0.001000000000000
203 1 1 0.000000 3.000000000000000 2.000000000000000 0.001000000000000
204 1 1 0.000000 3.000000000000000 3.000000000000000 0.001000000000000
205 1 1 0.000000 3.000000000000000 4.000000000000000 0.001000000000000
206 1 1 0.000000 3.000000000000000 5.000000000000000 0.001000000000000
207 1 1 0.000000 3.000000000000000 6.000000000000000 0.001000000000000
208 1 1 0.000000 3.000000000000000 7.000000000000000 0.001000000000000
209 1 1 0.000000 3.000000000000000 8.000000000000000 0.001000000000000
210 1 1 0.000000 3.000000000000000 9.000000000000000 0.001000000000000
211 1 1 0.000000 3.000000000000000 10.000000000000000 0.001000000000000
212 1 1 0.000000 3.000000000000000 11.000000000000000 0.001000000000000
213 1 1 0.000000 3.000000000000000 12.000000000000000 0.001000000000000
214 1 1 0.000000 3.000000000000000 13.000000000000000 0.001000000000000
215 1 1 0.000000 3.000000000000000 14.000000000000000 0.001000000000000
216 1 1 0.000000 3.000000000000000 15.000000000000000 0.001000000000000
217 1 1 0.000000 3.000000000000000 16.000000000000000 0.001000000000000
218 1 1 0.000000 3.000000000000000 17.000000000000000 0.001000000000000
219 1 1 0.000000 3.000000000000000 18.000000000000000 0.001000000000000
220 1 1 0.000000 3.000000000000000 19.000000000000000 0.001000000000000
221 1 1 0.000000 3.000000000000000 20.000000000000000 0.001000000000000
222 1 1 0.000000 3.000000000000000 21.000000000000000 0.001000000000000
223 1 1 0.000000 3.000000000000000 22.000000000000000 0.001000000000000
224 1 1 0.000000 3.000000000000000 23.000000000000000 0.001000000000000
225 1 1 0.000000 3.000000000000000 24.000000000000000 0.001000000000000
226 1 1 0.000000 3.000000000000000 25.000000000000000 0.001000000000000
227 1 1 0.000000 3.000000000000000 26.000000000000000 0.001000000000000
228 1 1 0.000000 3.000000000000000 27.000000000000000 0.001000000000000
229 1 1 0.000000 3.000000000000000 28.000000000000000 0.001000000000000
230 1 1 0.000000 3.000000000000000 29.000000000000000 0.001000000000000
231 1 1 0.000000 3.000000000000000 30.000000000000000 0.001000000000000
232 1 1 0.000000 3.000000000000000 31.000000000000000 0.001000000000000
233 1 1 0.000000 3.000000000000000 32.000000000000000 0.001000000000000
234 1 1 0.000000 3.000000000000000 33.000000000000000 0.001000000000000
235 1 1 0.000000 3.000000000000000 34.000000000000000 0.001000000000000
236 1 1 0.000000 3.000000000000000 35.000000000000000 0.001000000000000
237 1 1 0.000000 3.000000000000000 36.000000000000000 0.001000000000000
238 1 1 0.000000 3.000000000000000 37.000000000000000 0.001000000000000
239 1 1 0.000000 3.000000000000000 38.000000000000000 0.001000000000000
240 1 1 0.000000 3.000000000000000 39.000000000000000 0.001000000000000
241 1 1 0.000000 3.000000000000000 40.000000000000000 0.001000000000000
242 1 1 0.000000 3.000000000000000 41.000000000000000 0.001000000000000
243 1 1 0.000000 3.000000000000000 42.000000000000000 0.001000000000000
244 1 1 0.000000 3.000000000000000 43.000000000000000 0.001000000000000
245 1 1 0.000000 3.000000000000000 44.000000000000000 0.001000000000000
246 1 1 0.000000 3.000000000000000 45.000000000000000 0.001000000000000
247 1 1 0.000000 3.000000000000000 46.000000000000000 0.001000000000000
248 1 1 0.000000 3.000000000000000 47.000000000000000 0.001000000000000
249 1 1 0.000000 3.000000000000000 48.000000000000000 0.001000000000000
250 1 1 0.000000 3.000000000000000 49.000000000000000 0.001000000000000
251 1 1 0.000000 3.000000000000000 50.000000000000000 0.001000000000000
252 1 1 0.000000 3.000000000000000 51.000000000000000 0.001000000000000
253 1 1 0.000000 3.000000000000000 52.000000000000000 0.001000000000000
254 1 1 0.000000 3.000000000000000 53.000000000000000 0.001000000000000
255 1 1 0.000000 3.000000000000000 54.000000000000000 0.001000000000000
256 1 1 0.000000 3.000000000000000 55.000000000000000 0.001000000000000
257 1 1 0.000000 3.000000000000000 56.000000000000000 0.001000000000000
258 1 1 0.000000 3.000000000000000 57.000000000000000 0.001000000000000
259 1 1 0.000000 3.000000000000000 58.000000000000000 0.001000000000000
260 1 1 0.000000 3.000000000000000 59.000000000000000 0.001000000000000
261 1 1 0.000000 3.000000000000000 60.000000000000000 0.001000000000000
262 1 1 0.000000 3.000000000000000 61.000000000000000 0.001000000000000
263 1 1 0.000000 3.000000000000000 62.000000000000000 0.001000000000000
264 1 1 0.000000 3.000000000000000 63.000000000000000 0.001000000000000
265 1 1 0.000000 3.000000000000000 64.000000000000000 0.001000000000000
266 1 1 0.000000 3.000000000000000 65.000000000000000 0.001000000000000
267 1 1 0.000000 3.000000000000000 66.000000000000000 0.001000000000000
268 1 1 0.000000 3.000000000000000 67.000000000000000 0.001000000000000
269 1 1 0.000000 3.000000000000000 68.000000000000000 0.001000000000000
270 1 1 0.000000 3.000000000000000 69.000000000000000 0.001000000000000
271 1 1 0.000000 4.000000000000000 0.000000000000000 0.001000000000000
272 1 1 0.000000 4.000000000000000 1.000000000000000 0.001000000000000
273 1 1 0.000000 4.000000000000000 2.000000000000000 0.001000000000000
274 1 1 0.000000 4.000000000000000 3.000000000000000 0.001000000000000
275 1 1 0.000000 4.000000000000000 4.000000000000000 0.001000000000000
276 1 1 0.000000 4.000000000000000 5.000000000000000 0.001000000000000
277 1 1 0.000000 4.000000000000000 6.000000000000000 0.001000000000000
278 1 1 0.000000 4.000000000000000 7.000000000000000 0.001000000000000
279 1 1 0.000000 4.000000000000000 8.000000000000000 0.001000000000000
280 1 1 0.000000 4.000000000000000 9.000000000000000 0.001000000000000
281 1 1 0.000000 4.000000000000000 10.000000000000000 0.001000000000000
282 1 1 0.000000 4.000000000000000 11.000000000000000 0.001000000000000
283 1 1 0.000000 4.000000000000000 12.000000000000000 0.001000000000000
284 1 1 0.000000 4.000000000000000 13.000000000000000 0.001000000000000
285 1 1 0.000000 4.000000000000000 14.000000000000000 0.001000000000000
286 1 1 0.000000 4.000000000000000 15.000000000000000 0.001000000000000
287 1 1 0.000000 4.000000000000000 16.000000000000000 0.001000000000000
288 1 1 0.000000 4.000000000000000 17.000000000000000 0.001000000000000
289 1 1 0.000000 4.000000000000000 18.000000000000000 0.001000000000000
290 1 1 0.000000 4.000000000000000 19.000000000000000 0.001000000000000
291 1 1 0.000000 4.000000000000000 20.000000000000000 0.001000000000000
292 1 1 0.000000 4.000000000000000 21.000000000000000 0.001000000000000
293 1 1 0.000000 4.000000000000000 22.000000000000000 0.001000000000000
294 1 1 0.000000 4.000000000000000 23.000000000000000 0.001000000000000
295 1 1 0.000000 4.000000000000000 24.000000000000000 0.001000000000000
296 1 1 0.000000 4.000000000000000 25.000000000000000 0.001000000000000
297 1 1 0.000000 4.000000000000000 26.000000000000000 0.001000000000000
298 1 1 0.000000 4.000000000000000 27.000000000000000 0.001000000000000
299 1 1 0.000000 4.000000000000000 28.000000000000000 0.001000000000000
300 1 1 0.000000 4.000000000000000 29.000000000000000 0.001000000000000
301 1 1 0.000000 4.000000000000000 30.000000000000000 0.001000000000000
302 1 1 0.000000 4.000000000000000 31.000000000000000 0.001000000000000
303 1 1 0.000000 4.000000000000000 32.000000000000000 0.001000000000000
304 1 1 0.000000 4.000000000000000 33.000000000000000 0.001000000000000
305 1 1 0.000000 4.000000000000000 34.000000000000000 0.001000000000000
306 1 1 0.000000 4.000000000000000 35.000000000000000 0.001000000000000
307 1 1 0.000000 4.000000000000000 36.000000000000000 0.001000000000000
308 1 1 0.000000 4.000000000000000 37.000000000000000 0.001000000000000
309 1 1 0.000000 4.000000000000000 38.000000000000000 0.001000000000000
310 1 1 0.000000 4.000000000000000 39.000000000000000 0.001000000000000
311 1 1 0.000000 4.000000000000000 40.000000000000000 0.001000000000000
312 1 1 0.000000 4.000000000000000 41.000000000000000 0.001000000000000
313 1 1 0.000000 4.000000000000000 42.000000000000000 0.001000000000000
314 1 1 0.000000 4.000000000000000 43.000000000000000 0.001000000000000
315 1 1 0.000000 4.000000000000000 44.000000000000000 0.001000000000000
316 1 1 0.000000 4.000000000000000 45.000000000000000 0.001000000000000
317 1 1 0.000000 4.000000000000000 46.000000000000000 0.001000000000000
318 1 1 0.000000 4.000000000000000 47.000000000000000 0.001000000000000
319 1 1 0.000000 4.000000000000000 48.000000000000000 0.001000000000000
320 1 1 0.000000 4.000000000000000 49.000000000000000 0.001000000000000
321 1 1 0.000000 4.000000000000000 50.000000000000000 0.001000000000000
322 1 1 0.000000 4.000000000000000 51.000000000000000 0.001000000000000
323 1 1 0.000000 4.000000000000000 52.000000000000000 0.001000000000000
324 1 1 0.000000 4.000000000000000 53.000000000000000 0.001000000000000
325 1 1 0.000000 4.000000000000000 54.000000000000000 0.001000000000000
326 1 1 0.000000 4.000000000000000 55.000000000000000 0.001000000000000
327 1 1 0.000000 4.000000000000000 56.000000000000000 0.001000000000000
328 1 1 0.000000 4.000000000000000 57.000000000000000 0.001000000000000
329 1 1 0.000000 4.000000000000000 58.000000000000000 0.001000000000000
330 1 1 0.000000 4.000000000000000 59.000000000000000 0.001000000000000
331 1 1 0.000000 4.000000000000000 60.000000000000000 0.001000000000000
332 1 1 0.000000 4.000000000000000 61.000000000000000 0.001000000000000
333 1 1 0.000000 4.000000000000000 62.000000000000000 0.001000000000000
334 1 1 0.000000 4.000000000000000 63.000000000000000 0.001000000000000
335 1 1 0.000000 4.000000000000000 64.000000000000000 0.001000000000000
336 1 1 0.000000 4.000000000000000 65.000000000000000 0.001000000000000
337 1 1 0.000000 4.000000000000000 66.000000000000000 0.001000000000000
338 1 1 0.000000 4.000000000000000 67.000000000000000 0.001000000000000
339 1 1 0.000000 4.000000000000000 68.000000000000000 0.001000000000000
340 1 1 0.000000 4.000000000000000 69.000000000000000 0.001000000000000
341 1 1 0.000000 5.000000000000000 0.000000000000000 0.001000000000000
342 1 1 0.000000 5.000000000000000 1.000000000000000 0.001000000000000
343 1 1 0.000000 5.000000000000000 2.000000000000000 0.001000000000000
344 1 1 0.000000 5.000000000000000 3.000000000000000 0.001000000000000
345 1 1 0.000000 5.000000000000000 4.000000000000000 0.001000000000000
346 1 1 0.000000 5.000000000000000 5.000000000000000 0.001000000000000
347 1 1 0.000000 5.000000000000000 6.000000000000000 0.001000000000000
348 1 1 0.000000 5.000000000000000 7.000000000000000 0.001000000000000
349 1 1 0.000000 5.000000000000000 8.000000000000000 0.001000000000000
350 1 1 0.000000 5.000000000000000 9.000000000000000 0.001000000000000
351 1 1 0.000000 5.000000000000000 10.000000000000000 0.001000000000000
352 1 1 0.000000 5.000000000000000 11.000000000000000 0.001000000000000
353 1 1 0.000000 5.000000000000000 12.000000000000000 0.001000000000000
354 1 1 0.000000 5.000000000000000 13.000000000000000 0.001000000000000
355 1 1 0.000000 5.000000000000000 14.000000000000000 0.001000000000000
356 1 1 0.000000 5.000000000000000 15.000000000000000 0.001000000000000
357 1 1 0.000000 5.000000000000000 16.000000000000000 0.001000000000000
358 1 1 0.000000 5.000000000000000 17.000000000000000 0.001000000000000
359 1 1 0.000000 5.000000000000000 18.000000000000000 0.001000000000000
360 1 1 0.000000 5.000000000000000 19.000000000000000 0.001000000000000
361 1 1 0.000000 5.000000000000000 20.000000000000000 0.001000000000000
362 1 1 0.000000 5.000000000000000 21.000000000000000 0.001000000000000
363 1 1 0.000000 5.000000000000000 22.000000000000000 0.001000000000000
364 1 1 0.000000 5.000000000000000 23.000000000000000 0.001000000000000
365 1 1 0.000000 5.000000000000000 24.000000000000000 0.001000000000000
366 1 1 0.000000 5.000000000000000 25.000000000000000 0.001000000000000
367 1 1 0.000000 5.000000000000000 26.000000000000000 0.001000000000000
368 1 1 0.000000 5.000000000000000 27.000000000000000 0.001000000000000
369 1 1 0.000000 5.000000000000000 28.000000000000000 0.001000000000000
370 1 1 0.000000 5.000000000000000 29.000000000000000 0.001000000000000
371 1 1 0.000000 5.000000000000000 30.000000000000000 0.001000000000000
372 1 1 0.000000 5.000000000000000 31.000000000000000 0.001000000000000
373 1 1 0.000000 5.000000000000000 32.000000000000000 0.001000000000000
374 1 1 0.000000 5.000000000000000 33.000000000000000 0.001000000000000
375 1 1 0.000000 5.000000000000000 34.000000000000000 0.001000000000000
376 1 1 0.000000 5.000000000000000 35.000000000000000 0.001000000000000
377 1 1 0.000000 5.000000000000000 36.000000000000000 0.001000000000000
378 1 1 0.000000 5.000000000000000 37.000000000000000 0.001000000000000
379 1 1 0.000000 5.000000000000000 38.000000000000000 0.001000000000000
380 1 1 0.000000 5.000000000000000 39.000000000000000 0.001000000000000
381 1 1 0.000000 5.000000000000000 40.000000000000000 0.001000000000000
382 1 1 0.000000 5.000000000000000 41.000000000000000 0.001000000000000
383 1 1 0.000000 5.000000000000000 42.000000000000000 0.001000000000000
384 1 1 0.000000 5.000000000000000 43.000000000000000 0.001000000000000
385 1 1 0.000000 5.000000000000000 44.000000000000000 0.001000000000000
386 1 1 0.000000 5.000000000000000 45.000000000000000 0.001000000000000
387 1 1 0.000000 5.000000000000000 46.000000000000000 0.001000000000000
388 1 1 0.000000 5.000000000000000 47.000000000000000 0.001000000000000
389 1 1 0.000000 5.000000000000000 48.000000000000000 0.001000000000000
390 1 1 0.000000 5.000000000000000 49.000000000000000 0.001000000000000
391 1 1 0.000000 5.000000000000000 50.000000000000000 0.001000000000000
392 1 1 0.000000 5.000000000000000 51.000000000000000 0.001000000000000
393 1 1 0.000000 5.000000000000000 52.000000000000000 0.001000000000000
394 1 1 0.000000 5.000000000000000 53.000000000000000 0.001000000000000
395 1 1 0.000000 5.000000000000000 54.000000000000000 0.001000000000000
396 1 1 0.000000 5.000000000000000 55.000000000000000 0.001000000000000
397 1 1 0.000000 5.000000000000000 56.000000000000000 0.001000000000000
398 1 1 0.000000 5.000000000000000 57.000000000000000 0.001000000000000
399 1 1 0.000000 5.000000000000000 58.000000000000000 0.001000000000000
400 1 1 0.000000 5.000000000000000 59.000000000000000 0.001000000000000
401 1 1 0.000000 5.000000000000000 60.000000000000000 0.001000000000000
402 1 1 0.000000 5.000000000000000 61.000000000000000 0.001000000000000
403 1 1 0.000000 5.000000000000000 62.000000000000000 0.001000000000000
404 1 1 0.000000 5.000000000000000 63.000000000000000 0.001000000000000
405 1 1 0.000000 5.000000000000000 64.000000000000000 0.001000000000000
406 1 1 0.000000 5.000000000000000 65.000000000000000 0.001000000000000
407 1 1 0.000000 5.000000000000000 66.000000000000000 0.001000000000000
408 1 1 0.000000 5.000000000000000 67.000000000000000 0.001000000000000
409 1 1 0.000000 5.000000000000000 68.000000000000000 0.001000000000000
410 1 1 0.000000 5.000000000000000 69.000000000000000 0.001000000000000
411 1 1 0.000000 6.000000000000000 0.000000000000000 0.001000000000000
412 1 1 0.000000 6.000000000000000 1.000000000000000 0.001000000000000
413 1 1 0.000000 6.000000000000000 2.000000000000000 0.001000000000000
414 1 1 0.000000 6.000000000000000 3.000000000000000 0.001000000000000
415 1 1 0.000000 6.000000000000000 4.000000000000000 0.001000000000000
416 1 1 0.000000 6.000000000000000 5.000000000000000 0.001000000000000